 Entering Gaussian System, Link 0=g09
 Input=df-bp86tzvpp.gjf
 Output=df-bp86tzvpp.log
 Initial command:
 /home/chemsoft/gaussian/g09e01/g09/l1.exe "/scr/martin/g09job.inter1515653281/Gau-7432.inp" -scrdir="/scr/martin/g09job.inter1515653281/"
 Entering Link 1 = /home/chemsoft/gaussian/g09e01/g09/l1.exe PID=      7433.
  
 Copyright (c) 1988,1990,1992,1993,1995,1998,2003,2009,2015,
            Gaussian, Inc.  All Rights Reserved.
  
 This is part of the Gaussian(R) 09 program.  It is based on
 the Gaussian(R) 03 system (copyright 2003, Gaussian, Inc.),
 the Gaussian(R) 98 system (copyright 1998, Gaussian, Inc.),
 the Gaussian(R) 94 system (copyright 1995, Gaussian, Inc.),
 the Gaussian 92(TM) system (copyright 1992, Gaussian, Inc.),
 the Gaussian 90(TM) system (copyright 1990, Gaussian, Inc.),
 the Gaussian 88(TM) system (copyright 1988, Gaussian, Inc.),
 the Gaussian 86(TM) system (copyright 1986, Carnegie Mellon
 University), and the Gaussian 82(TM) system (copyright 1983,
 Carnegie Mellon University). Gaussian is a federally registered
 trademark of Gaussian, Inc.
  
 This software contains proprietary and confidential information,
 including trade secrets, belonging to Gaussian, Inc.
  
 This software is provided under written license and may be
 used, copied, transmitted, or stored only in accord with that
 written license.
  
 The following legend is applicable only to US Government
 contracts under FAR:
  
                    RESTRICTED RIGHTS LEGEND
  
 Use, reproduction and disclosure by the US Government is
 subject to restrictions as set forth in subparagraphs (a)
 and (c) of the Commercial Computer Software - Restricted
 Rights clause in FAR 52.227-19.
  
 Gaussian, Inc.
 340 Quinnipiac St., Bldg. 40, Wallingford CT 06492
  
  
 ---------------------------------------------------------------
 Warning -- This program may not be used in any manner that
 competes with the business of Gaussian, Inc. or will provide
 assistance to any competitor of Gaussian, Inc.  The licensee
 of this program is prohibited from giving any competitor of
 Gaussian, Inc. access to this program.  By using this program,
 the user acknowledges that Gaussian, Inc. is engaged in the
 business of creating and licensing software in the field of
 computational chemistry and represents and warrants to the
 licensee that it is not a competitor of Gaussian, Inc. and that
 it will not use this program in any manner prohibited above.
 ---------------------------------------------------------------
  

 Cite this work as:
 Gaussian 09, Revision E.01,
 M. J. Frisch, G. W. Trucks, H. B. Schlegel, G. E. Scuseria, 
 M. A. Robb, J. R. Cheeseman, G. Scalmani, V. Barone, B. Mennucci, 
 G. A. Petersson, H. Nakatsuji, M. Caricato, X. Li, H. P. Hratchian, 
 A. F. Izmaylov, J. Bloino, G. Zheng, J. L. Sonnenberg, M. Hada, 
 M. Ehara, K. Toyota, R. Fukuda, J. Hasegawa, M. Ishida, T. Nakajima, 
 Y. Honda, O. Kitao, H. Nakai, T. Vreven, J. A. Montgomery, Jr., 
 J. E. Peralta, F. Ogliaro, M. Bearpark, J. J. Heyd, E. Brothers, 
 K. N. Kudin, V. N. Staroverov, T. Keith, R. Kobayashi, J. Normand, 
 K. Raghavachari, A. Rendell, J. C. Burant, S. S. Iyengar, J. Tomasi, 
 M. Cossi, N. Rega, J. M. Millam, M. Klene, J. E. Knox, J. B. Cross, 
 V. Bakken, C. Adamo, J. Jaramillo, R. Gomperts, R. E. Stratmann, 
 O. Yazyev, A. J. Austin, R. Cammi, C. Pomelli, J. W. Ochterski, 
 R. L. Martin, K. Morokuma, V. G. Zakrzewski, G. A. Voth, 
 P. Salvador, J. J. Dannenberg, S. Dapprich, A. D. Daniels, 
 O. Farkas, J. B. Foresman, J. V. Ortiz, J. Cioslowski, 
 and D. J. Fox, Gaussian, Inc., Wallingford CT, 2013.
 
 ******************************************
 Gaussian 09:  ES64L-G09RevE.01 30-Nov-2015
                11-Jan-2018 
 ******************************************
 %chk=df-bp86tzvpp.chk
 %nproc=4
 Will use up to    4 processors via shared memory.
 %mem=16000MB
 ----------------------------------------------------------------------
 #P BP86/def2TZVPP/W06 DenFit opt(MaxCycle=100) scf(xqc,MaxConventional
 Cycle=500) scrf(pcm,solvent=water) EmpiricalDispersion=GD3BJ int(ultra
 finegrid) gfinput gfoldprint iop(6/7=3) symmetry(loose)
 ----------------------------------------------------------------------
 1/6=100,14=-1,18=20,19=15,26=4,38=1/1,3;
 2/9=110,12=2,17=4,18=3,40=1/2;
 3/5=44,7=202,11=2,16=1,24=11,25=1,30=1,70=2201,71=1,72=1,74=404,75=-5,82=40,124=41/1,2,3;
 4//1;
 5/5=2,8=3,13=1,38=5,53=1,85=500/2,8;
 6/7=3,8=2,9=2,10=2,28=1/1;
 7//1,2,3,16;
 1/6=100,14=-1,18=20,19=15,26=4/3(2);
 2/9=110/2;
 99//99;
 2/9=110/2;
 3/5=44,7=202,11=2,16=1,25=1,30=1,70=2205,71=1,72=1,74=404,75=-5,82=40,124=41/1,2,3;
 4/5=5,16=3,69=1/1;
 5/5=2,8=3,13=1,38=5,53=1,85=500/2,8;
 7//1,2,3,16;
 1/6=100,14=-1,18=20,19=15,26=4/3(-5);
 2/9=110/2;
 6/7=3,8=2,9=2,10=2,19=2,28=1/1;
 99/9=1/99;
 Leave Link    1 at Thu Jan 11 15:48:01 2018, MaxMem=  2097152000 cpu:         0.5
 (Enter /home/chemsoft/gaussian/g09e01/g09/l101.exe)
 --------------------------------------------
 Water in water DF-BP86-D3(BJ)-PCM/def2-TZVPP
 --------------------------------------------
 Symbolic Z-matrix:
 Charge =  0 Multiplicity = 1
 O                     0.        0.        0. 
 H                     0.        0.        0.95 
 H                     0.89567   0.       -0.31666 
 
 NAtoms=      3 NQM=        3 NQMF=       0 NMMI=      0 NMMIF=      0
                NMic=       0 NMicF=      0.
                    Isotopes and Nuclear Properties:
 (Nuclear quadrupole moments (NQMom) in fm**2, nuclear magnetic moments (NMagM)
  in nuclear magnetons)

  Atom         1           2           3
 IAtWgt=          16           1           1
 AtmWgt=  15.9949146   1.0078250   1.0078250
 NucSpn=           0           1           1
 AtZEff=   0.0000000   0.0000000   0.0000000
 NQMom=    0.0000000   0.0000000   0.0000000
 NMagM=    0.0000000   2.7928460   2.7928460
 AtZNuc=   8.0000000   1.0000000   1.0000000
 Leave Link  101 at Thu Jan 11 15:48:02 2018, MaxMem=  2097152000 cpu:         2.2
 (Enter /home/chemsoft/gaussian/g09e01/g09/l103.exe)

 GradGradGradGradGradGradGradGradGradGradGradGradGradGradGradGradGradGrad
 Berny optimization.
 Initialization pass.
                           ----------------------------
                           !    Initial Parameters    !
                           ! (Angstroms and Degrees)  !
 --------------------------                            --------------------------
 ! Name  Definition              Value          Derivative Info.                !
 --------------------------------------------------------------------------------
 ! R1    R(1,2)                  0.95           estimate D2E/DX2                !
 ! R2    R(1,3)                  0.95           estimate D2E/DX2                !
 ! A1    A(2,1,3)              109.471          estimate D2E/DX2                !
 --------------------------------------------------------------------------------
 Trust Radius=3.00D-01 FncErr=1.00D-07 GrdErr=1.00D-06
 Number of steps in this run=    100 maximum allowed number of steps=    100.
 GradGradGradGradGradGradGradGradGradGradGradGradGradGradGradGradGradGrad

 Leave Link  103 at Thu Jan 11 15:48:02 2018, MaxMem=  2097152000 cpu:         0.0
 (Enter /home/chemsoft/gaussian/g09e01/g09/l202.exe)
                          Input orientation:                          
 ---------------------------------------------------------------------
 Center     Atomic      Atomic             Coordinates (Angstroms)
 Number     Number       Type             X           Y           Z
 ---------------------------------------------------------------------
      1          8           0        0.000000    0.000000    0.000000
      2          1           0        0.000000    0.000000    0.950000
      3          1           0        0.895670    0.000000   -0.316663
 ---------------------------------------------------------------------
                    Distance matrix (angstroms):
                    1          2          3
     1  O    0.000000
     2  H    0.950000   0.000000
     3  H    0.950000   1.551341   0.000000
 Stoichiometry    H2O
 Framework group  C2V[C2(O),SGV(H2)]
 Deg. of freedom     2
 Full point group                 C2V     NOp   4
 Largest Abelian subgroup         C2V     NOp   4
 Largest concise Abelian subgroup C2      NOp   2
                         Standard orientation:                         
 ---------------------------------------------------------------------
 Center     Atomic      Atomic             Coordinates (Angstroms)
 Number     Number       Type             X           Y           Z
 ---------------------------------------------------------------------
      1          8           0        0.000000    0.000000    0.109697
      2          1           0       -0.000000   -0.775671   -0.438788
      3          1           0        0.000000    0.775671   -0.438788
 ---------------------------------------------------------------------
 Rotational constants (GHZ):    938.4665947    416.7229553    288.5799797
 Leave Link  202 at Thu Jan 11 15:48:02 2018, MaxMem=  2097152000 cpu:         0.0
 (Enter /home/chemsoft/gaussian/g09e01/g09/l301.exe)
 Standard basis: def2TZVPP (5D, 7F)
 ======================================================================================================
                                       Pseudopotential Parameters
 ======================================================================================================
  Center     Atomic      Valence      Angular      Power
  Number     Number     Electrons     Momentum     of R      Exponent        Coefficient   SO-Coeffient
 ======================================================================================================
    1          8
                                   No pseudopotential on this center.
    2          1
                                   No pseudopotential on this center.
    3          1
                                   No pseudopotential on this center.
 ======================================================================================================
 Ernie: Thresh=  0.10000D-02 Tol=  0.10000D-05 Strict=F.
 AO basis set in the form of general basis input (Overlap normalization):
      1 0
 S   6 1.00       0.000000000000
      0.2703238263D+05  0.5722733521D-03
      0.4052387139D+04  0.4435323349D-02
      0.9223272271D+03  0.2302010771D-01
      0.2612407099D+03  0.9282249067D-01
      0.8535464135D+02  0.2937850001D+00
      0.3103503525D+02  0.6740160450D+00
 S   2 1.00       0.000000000000
      0.1226086073D+02  0.6383993703D+00
      0.4998707601D+01  0.3953458713D+00
 S   1 1.00       0.000000000000
      0.1170310816D+01  0.1000000000D+01
 S   1 1.00       0.000000000000
      0.4647474099D+00  0.1000000000D+01
 S   1 1.00       0.000000000000
      0.1850453636D+00  0.1000000000D+01
 P   4 1.00       0.000000000000
      0.6327495480D+02  0.1201833222D-01
      0.1462704938D+02  0.8300542179D-01
      0.4450122346D+01  0.3199174393D+00
      0.1527579965D+01  0.7071554292D+00
 P   1 1.00       0.000000000000
      0.5293511794D+00  0.1000000000D+01
 P   1 1.00       0.000000000000
      0.1747842127D+00  0.1000000000D+01
 D   1 1.00       0.000000000000
      0.2314000000D+01  0.1000000000D+01
 D   1 1.00       0.000000000000
      0.6450000000D+00  0.1000000000D+01
 F   1 1.00       0.000000000000
      0.1428000000D+01  0.1000000000D+01
 ****
      2 0
 S   3 1.00       0.000000000000
      0.3406134100D+02  0.2543930721D-01
      0.5123574600D+01  0.1900859489D+00
      0.1164662600D+01  0.8524411301D+00
 S   1 1.00       0.000000000000
      0.3272304100D+00  0.1000000000D+01
 S   1 1.00       0.000000000000
      0.1030724100D+00  0.1000000000D+01
 P   1 1.00       0.000000000000
      0.1407000000D+01  0.1000000000D+01
 P   1 1.00       0.000000000000
      0.3880000000D+00  0.1000000000D+01
 D   1 1.00       0.000000000000
      0.1057000000D+01  0.1000000000D+01
 ****
      3 0
 S   3 1.00       0.000000000000
      0.3406134100D+02  0.2543930721D-01
      0.5123574600D+01  0.1900859489D+00
      0.1164662600D+01  0.8524411301D+00
 S   1 1.00       0.000000000000
      0.3272304100D+00  0.1000000000D+01
 S   1 1.00       0.000000000000
      0.1030724100D+00  0.1000000000D+01
 P   1 1.00       0.000000000000
      0.1407000000D+01  0.1000000000D+01
 P   1 1.00       0.000000000000
      0.3880000000D+00  0.1000000000D+01
 D   1 1.00       0.000000000000
      0.1057000000D+01  0.1000000000D+01
 ****

 ***********************************************************************************************************************************
 *             ATOMIC CENTER             *        ATOMIC ORBITAL       *                     GAUSSIAN FUNCTIONS                    *
 ***********************************************************************************************************************************
 *                                       * FUNCTION    SHELL    SCALE  *                                                           *
 *    ATOM   X-COORD  Y-COORD  Z-COORD   *  NUMBER     TYPE     FACTOR *  EXPONENT    S-COEF      P-COEF      D-COEF      F-COEF   *
 ***********************************************************************************************************************************
 *     O      0.00000  0.00000  0.20730                                                                                            *
+                                                1   S           1.00                                                               
+                                                                      0.270324D+050.859858D+000.000000D+000.000000D+000.000000D+00 
 *                                                                     0.405239D+040.160553D+010.000000D+000.000000D+000.000000D+00*
 *                                                                     0.922327D+030.274588D+010.000000D+000.000000D+000.000000D+00*
 *                                                                     0.261241D+030.429877D+010.000000D+000.000000D+000.000000D+00*
 *                                                                     0.853546D+020.587977D+010.000000D+000.000000D+000.000000D+00*
 *                                                                     0.310350D+020.631640D+010.000000D+000.000000D+000.000000D+00*
 *                                               2   S           1.00                                                              *
+                                                                      0.122609D+020.298121D+010.000000D+000.000000D+000.000000D+00 
 *                                                                     0.499871D+010.941956D+000.000000D+000.000000D+000.000000D+00*
 *                                               3   S           1.00                                                              *
+                                                                      0.117031D+010.801929D+000.000000D+000.000000D+000.000000D+00 
 *                                               4   S           1.00                                                              *
+                                                                      0.464747D+000.401165D+000.000000D+000.000000D+000.000000D+00 
 *                                               5   S           1.00                                                              *
+                                                                      0.185045D+000.201080D+000.000000D+000.000000D+000.000000D+00 
 *                                           6-  8   P           1.00                                                              *
+                                                                      0.632750D+020.000000D+000.305720D+010.000000D+000.000000D+00 
 *                                                                     0.146270D+020.000000D+000.338448D+010.000000D+000.000000D+00*
 *                                                                     0.445012D+010.000000D+000.294743D+010.000000D+000.000000D+00*
 *                                                                     0.152758D+010.000000D+000.171183D+010.000000D+000.000000D+00*
 *                                           9- 11   P           1.00                                                              *
+                                                                      0.529351D+000.000000D+000.643606D+000.000000D+000.000000D+00 
 *                                          12- 14   P           1.00                                                              *
+                                                                      0.174784D+000.000000D+000.161090D+000.000000D+000.000000D+00 
 *                                          15- 19   D           1.00                                                              *
+                                                                      0.231400D+010.000000D+000.000000D+000.714571D+010.000000D+00 
 *                                          20- 24   D           1.00                                                              *
+                                                                      0.645000D+000.000000D+000.000000D+000.764080D+000.000000D+00 
 *                                          19- 31   F           1.00                                                              *
+                                                                      0.142800D+010.000000D+000.000000D+000.000000D+000.328165D+01 
 *---------------------------------------------------------------------------------------------------------------------------------*
 *     H      0.00000 -1.46580 -0.82919                                                                                            *
+                                               32   S           1.00                                                               
+                                                                      0.340613D+020.255630D+000.000000D+000.000000D+000.000000D+00 
 *                                                                     0.512357D+010.461360D+000.000000D+000.000000D+000.000000D+00*
 *                                                                     0.116466D+010.681121D+000.000000D+000.000000D+000.000000D+00*
 *                                              33   S           1.00                                                              *
+                                                                      0.327230D+000.308355D+000.000000D+000.000000D+000.000000D+00 
 *                                              34   S           1.00                                                              *
+                                                                      0.103072D+000.129648D+000.000000D+000.000000D+000.000000D+00 
 *                                          35- 37   P           1.00                                                              *
+                                                                      0.140700D+010.000000D+000.218428D+010.000000D+000.000000D+00 
 *                                          38- 40   P           1.00                                                              *
+                                                                      0.388000D+000.000000D+000.436495D+000.000000D+000.000000D+00 
 *                                          41- 45   D           1.00                                                              *
+                                                                      0.105700D+010.000000D+000.000000D+000.181360D+010.000000D+00 
 *---------------------------------------------------------------------------------------------------------------------------------*
 *     H      0.00000  1.46580 -0.82919                                                                                            *
+                                               46   S           1.00                                                               
+                                                                      0.340613D+020.255630D+000.000000D+000.000000D+000.000000D+00 
 *                                                                     0.512357D+010.461360D+000.000000D+000.000000D+000.000000D+00*
 *                                                                     0.116466D+010.681121D+000.000000D+000.000000D+000.000000D+00*
 *                                              47   S           1.00                                                              *
+                                                                      0.327230D+000.308355D+000.000000D+000.000000D+000.000000D+00 
 *                                              48   S           1.00                                                              *
+                                                                      0.103072D+000.129648D+000.000000D+000.000000D+000.000000D+00 
 *                                          49- 51   P           1.00                                                              *
+                                                                      0.140700D+010.000000D+000.218428D+010.000000D+000.000000D+00 
 *                                          52- 54   P           1.00                                                              *
+                                                                      0.388000D+000.000000D+000.436495D+000.000000D+000.000000D+00 
 *                                          55- 59   D           1.00                                                              *
+                                                                      0.105700D+010.000000D+000.000000D+000.181360D+010.000000D+00 
 ***********************************************************************************************************************************
 There are    28 symmetry adapted cartesian basis functions of A1  symmetry.
 There are     7 symmetry adapted cartesian basis functions of A2  symmetry.
 There are    12 symmetry adapted cartesian basis functions of B1  symmetry.
 There are    19 symmetry adapted cartesian basis functions of B2  symmetry.
 There are    24 symmetry adapted basis functions of A1  symmetry.
 There are     7 symmetry adapted basis functions of A2  symmetry.
 There are    11 symmetry adapted basis functions of B1  symmetry.
 There are    17 symmetry adapted basis functions of B2  symmetry.
    59 basis functions,    85 primitive gaussians,    66 cartesian basis functions
     5 alpha electrons        5 beta electrons
       nuclear repulsion energy         9.2535675849 Hartrees.
 IExCor=  404 DFT=T Ex=B Corr=P86 ExCW=0 ScaHFX=  0.000000
 ScaDFX=  1.000000  1.000000  1.000000  1.000000 ScalE2=  1.000000  1.000000
 IRadAn=      5 IRanWt=     -1 IRanGd=            0 ICorTp=0 IEmpDi=141
 NAtoms=    3 NActive=    3 NUniq=    2 SFac= 2.25D+00 NAtFMM=   60 NAOKFM=F Big=F
 Integral buffers will be    131072 words long.
 Raffenetti 2 integral format.
 Two-electron integral symmetry is turned on.
 R6Disp:  Grimme-D3(BJ) Dispersion energy=       -0.0004588170 Hartrees.
 Nuclear repulsion after empirical dispersion term =        9.2531087679 Hartrees.
 Standard density basis: W06 (5D, 7F)
    71 Density fitting functions
 Density basis set in the form of general basis input (Coulomb normalization):
      1 0
 S   7 1.00       0.000000000000
      0.2876821660D+04  0.2270593741D-02
      0.1004744303D+04  0.7771821934D-02
      0.3697579954D+03  0.4500776675D-01
      0.1429442404D+03  0.1614169872D+00
      0.5783664250D+02  0.4002483159D+00
      0.2438649830D+02  0.4055352428D+00
      0.1066226620D+02  0.1264483877D-01
 S   1 1.00       0.000000000000
      0.4807043700D+01 -0.1000000000D+01
 S   1 1.00       0.000000000000
      0.2221077000D+01  0.1000000000D+01
 S   1 1.00       0.000000000000
      0.1044779500D+01  0.1000000000D+01
 S   1 1.00       0.000000000000
      0.4968425000D+00  0.1000000000D+01
 S   1 1.00       0.000000000000
      0.2371384000D+00  0.1000000000D+01
 P   2 1.00       0.000000000000
      0.6426133820D+02 -0.1493990575D+00
      0.1630060760D+02 -0.8870141552D+00
 P   1 1.00       0.000000000000
      0.4355054200D+01  0.1000000000D+01
 P   1 1.00       0.000000000000
      0.1201955400D+01  0.1000000000D+01
 P   1 1.00       0.000000000000
      0.3354196000D+00  0.1000000000D+01
 D   2 1.00       0.000000000000
      0.9214661100D+01 -0.2892091355D+00
      0.2843525100D+01 -0.7372695630D+00
 D   1 1.00       0.000000000000
      0.9955759000D+00 -0.1000000000D+01
 D   1 1.00       0.000000000000
      0.3649441000D+00 -0.1000000000D+01
 F   2 1.00       0.000000000000
      0.2642011500D+01  0.3737238795D+00
      0.7345613000D+00  0.7087681254D+00
 G   1 1.00       0.000000000000
      0.1393100000D+01 -0.1000000000D+01
 ****
      2 0
 S   3 1.00       0.000000000000
      0.1567529270D+02  0.3261158972D-01
      0.3606357800D+01  0.2298046837D+00
      0.1208001600D+01  0.7572083240D+00
 S   1 1.00       0.000000000000
      0.4726794000D+00  0.1000000000D+01
 S   1 1.00       0.000000000000
      0.2018100000D+00  0.1000000000D+01
 P   2 1.00       0.000000000000
      0.2028136500D+01  0.3618361986D+00
      0.5358730000D+00  0.7039303088D+00
 D   1 1.00       0.000000000000
      0.2216512400D+01  0.1000000000D+01
 ****
      3 0
 S   3 1.00       0.000000000000
      0.1567529270D+02  0.3261158972D-01
      0.3606357800D+01  0.2298046837D+00
      0.1208001600D+01  0.7572083240D+00
 S   1 1.00       0.000000000000
      0.4726794000D+00  0.1000000000D+01
 S   1 1.00       0.000000000000
      0.2018100000D+00  0.1000000000D+01
 P   2 1.00       0.000000000000
      0.2028136500D+01  0.3618361986D+00
      0.5358730000D+00  0.7039303088D+00
 D   1 1.00       0.000000000000
      0.2216512400D+01  0.1000000000D+01
 ****

 There are    71 symmetry adapted density basis functions of A   symmetry.
 ------------------------------------------------------------------------------
 Polarizable Continuum Model (PCM)
 =================================
 Model                : PCM (using non-symmetric T matrix).
 Atomic radii         : UFF (Universal Force Field).
 Polarization charges : Total charges.
 Charge compensation  : None.
 Solution method      : On-the-fly selection.
 Cavity type          : Scaled VdW (van der Waals Surface) (Alpha=1.100).
 Cavity algorithm     : GePol (No added spheres)
                        Default sphere list used, NSphG=    3.
                        Lebedev-Laikov grids with approx.  5.0 points / Ang**2.
                        Smoothing algorithm: York/Karplus (Gamma=1.0000).
                        Polarization charges: spherical gaussians, with
                                              point-specific exponents (IZeta= 3).
                        Self-potential: point-specific (ISelfS= 7).
                        Self-field    : sphere-specific E.n sum rule (ISelfD= 2).
 1st derivatives      : Analytical E(r).r(x)/FMM algorithm (CHGder, D1EAlg=3).
                        Cavity 1st derivative terms included.
 Solvent              : Water, Eps=  78.355300 Eps(inf)=   1.777849
 ------------------------------------------------------------------------------
 Spheres list:
 ISph  on   Nord     Re0    Alpha      Xe            Ye            Ze
    1   O      1    1.7500  1.100      0.000000      0.000000      0.109697
    2   H      2    1.4430  1.100      0.000000     -0.775671     -0.438788
    3   H      3    1.4430  1.100      0.000000      0.775671     -0.438788
 ------------------------------------------------------------------------------
 GePol: Number of generator spheres                  =       3
 GePol: Total number of spheres                      =       3
 GePol: Number of exposed spheres                    =       3 (100.00%)
 GePol: Number of points                             =     392
 GePol: Average weight of points                     =       0.14
 GePol: Minimum weight of points                     =   0.97D-04
 GePol: Maximum weight of points                     =    0.20212
 GePol: Number of points with low weight             =       8
 GePol: Fraction of low-weight points (<1% of avg)   =       2.04%
 GePol: Cavity surface area                          =     55.426 Ang**2
 GePol: Cavity volume                                =     37.277 Ang**3
 Leave Link  301 at Thu Jan 11 15:48:02 2018, MaxMem=  2097152000 cpu:         0.6
 (Enter /home/chemsoft/gaussian/g09e01/g09/l302.exe)
 NPDir=0 NMtPBC=     1 NCelOv=     1 NCel=       1 NClECP=     1 NCelD=      1
         NCelK=      1 NCelE2=     1 NClLst=     1 CellRange=     0.0.
 One-electron integrals computed using PRISM.
 One-electron integral symmetry used in STVInt
   4 Symmetry operations used in ECPInt.
 ECPInt:  NShTT=     276 NPrTT=     694 LenC2=     277 LenP2D=     681.
 LDataN:  DoStor=T MaxTD1= 6 Len=  172
 NBasis=    59 RedAO= T EigKep=  2.96D-03  NBF=    24     7    11    17
 NBsUse=    59 1.00D-06 EigRej= -1.00D+00 NBFU=    24     7    11    17
 NBasis=       59 NBas6D=       66 NTT=        1770   NTT6D=     2211
 NDBShl=       25 NDBF=         71 NDBF6D=       85  NNucDB=        0
 IDenFi=        2 ISolve=        0 FullAP=F BlkAPC=T NucTyp=        0
 TolInv= 1.00D-06 TolIt=  1.00D-10 IR12=0.
 FoFCou: FMM=F IPFlag=           0 FMFlag=           0 FMFlg1=           0
         NFxFlg=           0 DoJE=F BraDBF=T KetDBF=T FulRan=T
         wScrn=  0.000000 ICntrl=     600 IOpCl=  3 I1Cent=           6 NGrid=           0
         NMat0=    1 NMatS0=     85 NMatT0=    0 NMatD0=    1 NMtDS0=    0 NMtDT0=    0
 Petite list used in FoFCou.
 DBF EigKep=  2.06D-04 EigRej= -1.00D+00
 NDBF=     71  NBFD=    71
 NRank=    71 NBFDU=    71
 S*AI*S=  4.32892468050    
 Precomputing XC quadrature grid using
 IXCGrd= 4 IRadAn=           5 IRanWt=          -1 IRanGd=           0 AccXCQ= 0.00D+00.
 Generated NRdTot=       0 NPtTot=           0 NUsed=           0 NTot=          32
 NSgBfM=    66    66    66    66    66 MxSgAt=     3 MxSgA2=     3.
 Leave Link  302 at Thu Jan 11 15:48:03 2018, MaxMem=  2097152000 cpu:         1.4
 (Enter /home/chemsoft/gaussian/g09e01/g09/l303.exe)
 DipDrv:  MaxL=1.
 Leave Link  303 at Thu Jan 11 15:48:03 2018, MaxMem=  2097152000 cpu:         0.1
 (Enter /home/chemsoft/gaussian/g09e01/g09/l401.exe)
 ExpMin= 1.03D-01 ExpMax= 2.70D+04 ExpMxC= 9.22D+02 IAcc=3 IRadAn=         5 AccDes= 0.00D+00
 Harris functional with IExCor=  404 and IRadAn=       5 diagonalized for initial guess.
 HarFok:  IExCor=  404 AccDes= 0.00D+00 IRadAn=         5 IDoV= 1 UseB2=F ITyADJ=14
 ICtDFT=  3500011 ScaDFX=  1.000000  1.000000  1.000000  1.000000
 FoFCou: FMM=F IPFlag=           0 FMFlag=      100000 FMFlg1=           0
         NFxFlg=           0 DoJE=T BraDBF=F KetDBF=T FulRan=T
         wScrn=  0.000000 ICntrl=     500 IOpCl=  0 I1Cent=   200000004 NGrid=           0
         NMat0=    1 NMatS0=      1 NMatT0=    0 NMatD0=    1 NMtDS0=    0 NMtDT0=    0
 Petite list used in FoFCou.
 Harris En= -76.5132690329095    
 JPrj=0 DoOrth=F DoCkMO=F.
 Initial guess orbital symmetries:
       Occupied  (A1) (A1) (B2) (A1) (B1)
       Virtual   (A1) (B2) (B2) (A1) (A1) (B1) (B2) (A1) (A2) (A1)
                 (B1) (B2) (A1) (B2) (B1) (B2) (A2) (A1) (A1) (A1)
                 (B2) (B1) (A1) (B1) (A1) (A2) (B2) (A1) (B2) (B2)
                 (A1) (A2) (B1) (A2) (B1) (A1) (B2) (B2) (A1) (B2)
                 (A1) (B1) (A1) (B1) (A2) (A1) (B1) (B2) (A2) (A1)
                 (B2) (B2) (A1) (A1)
 The electronic state of the initial guess is 1-A1.
 Leave Link  401 at Thu Jan 11 15:48:03 2018, MaxMem=  2097152000 cpu:         1.2
 (Enter /home/chemsoft/gaussian/g09e01/g09/l502.exe)
 Closed shell SCF:
 Density fitting will be used, IDenFit= 2 NucTyp=  0.
 Using DIIS extrapolation, IDIIS=  1040.
 Integral symmetry usage will be decided dynamically.
 IVT=      268214 IEndB=      268214 NGot=  2097152000 MDV=  2097139209
 LenX=  2097139209 LenY=  2097134412
 Requested convergence on RMS density matrix=1.00D-08 within 500 cycles.
 Requested convergence on MAX density matrix=1.00D-06.
 Requested convergence on             energy=1.00D-06.
 No special actions if energy rises.
 Fock matrices will be formed incrementally for  20 cycles.

 Cycle   1  Pass 1  IDiag  1:
 FoFCou: FMM=F IPFlag=           0 FMFlag=      100000 FMFlg1=           0
         NFxFlg=           0 DoJE=T BraDBF=T KetDBF=F FulRan=T
         wScrn=  0.000000 ICntrl=     500 IOpCl=  0 I1Cent=           5 NGrid=           0
         NMat0=    1 NMatS0=      1 NMatT0=    0 NMatD0=    1 NMtDS0=    0 NMtDT0=    0
 Petite list used in FoFCou.
 FoFJK:  IHMeth= 1 ICntrl=     500 DoSepK=F KAlg= 0 I1Cent=   4 FoldK=F
 IRaf= 990000000 NMat=   1 IRICut=       1 DoRegI=T DoRafI=F ISym2E= 1.
 Inv3:  Mode=1 IEnd=      460992.
 Iteration    1 A*A^-1 deviation from unit magnitude is 2.66D-15 for    390.
 Iteration    1 A*A^-1 deviation from orthogonality  is 2.30D-15 for    260     31.
 Iteration    1 A^-1*A deviation from unit magnitude is 2.44D-15 for    390.
 Iteration    1 A^-1*A deviation from orthogonality  is 2.70D-15 for    378    286.
 E= -76.3934231726582    
 DIIS: error= 6.91D-02 at cycle   1 NSaved=   1.
 NSaved= 1 IEnMin= 1 EnMin= -76.3934231726582     IErMin= 1 ErrMin= 6.91D-02
 ErrMax= 6.91D-02  0.00D+00 EMaxC= 1.00D-01 BMatC= 1.11D-01 BMatP= 1.11D-01
 IDIUse=3 WtCom= 3.09D-01 WtEn= 6.91D-01
 Coeff-Com:  0.100D+01
 Coeff-En:   0.100D+01
 Coeff:      0.100D+01
 Gap=     0.129 Goal=   None    Shift=    0.000
 GapD=    0.129 DampG=1.000 DampE=0.500 DampFc=0.5000 IDamp=-1.
 Damping current iteration by 5.00D-01
 RMSDP=7.81D-03 MaxDP=1.66D-01              OVMax= 2.26D-01

 Cycle   2  Pass 1  IDiag  1:
 RMSU=  3.75D-03    CP:  9.43D-01
 E= -76.3974016017743     Delta-E=       -0.003978429116 Rises=F Damp=T
 DIIS: error= 3.27D-02 at cycle   2 NSaved=   2.
 NSaved= 2 IEnMin= 2 EnMin= -76.3974016017743     IErMin= 2 ErrMin= 3.27D-02
 ErrMax= 3.27D-02  0.00D+00 EMaxC= 1.00D-01 BMatC= 2.53D-02 BMatP= 1.11D-01
 IDIUse=3 WtCom= 6.73D-01 WtEn= 3.27D-01
 Coeff-Com:  0.319D+00 0.681D+00
 Coeff-En:   0.482D+00 0.518D+00
 Coeff:      0.372D+00 0.628D+00
 Gap=     0.261 Goal=   None    Shift=    0.000
 RMSDP=1.07D-03 MaxDP=2.70D-02 DE=-3.98D-03 OVMax= 1.40D-01

 Cycle   3  Pass 1  IDiag  1:
 RMSU=  6.61D-04    CP:  9.60D-01  7.92D-01
 E= -76.4709900458020     Delta-E=       -0.073588444028 Rises=F Damp=F
 DIIS: error= 9.71D-03 at cycle   3 NSaved=   3.
 NSaved= 3 IEnMin= 3 EnMin= -76.4709900458020     IErMin= 3 ErrMin= 9.71D-03
 ErrMax= 9.71D-03  0.00D+00 EMaxC= 1.00D-01 BMatC= 2.36D-03 BMatP= 2.53D-02
 IDIUse=3 WtCom= 9.03D-01 WtEn= 9.71D-02
 Coeff-Com:  0.100D+00-0.952D-01 0.995D+00
 Coeff-En:   0.000D+00 0.000D+00 0.100D+01
 Coeff:      0.905D-01-0.859D-01 0.995D+00
 Gap=     0.284 Goal=   None    Shift=    0.000
 RMSDP=3.65D-04 MaxDP=6.12D-03 DE=-7.36D-02 OVMax= 1.12D-02

 Cycle   4  Pass 1  IDiag  1:
 RMSU=  1.02D-04    CP:  9.65D-01  7.03D-01  1.00D+00
 E= -76.4724645379965     Delta-E=       -0.001474492194 Rises=F Damp=F
 DIIS: error= 8.12D-04 at cycle   4 NSaved=   4.
 NSaved= 4 IEnMin= 4 EnMin= -76.4724645379965     IErMin= 4 ErrMin= 8.12D-04
 ErrMax= 8.12D-04  0.00D+00 EMaxC= 1.00D-01 BMatC= 2.27D-05 BMatP= 2.36D-03
 IDIUse=3 WtCom= 9.92D-01 WtEn= 8.12D-03
 Coeff-Com:  0.198D-01-0.218D-01 0.272D+00 0.730D+00
 Coeff-En:   0.000D+00 0.000D+00 0.000D+00 0.100D+01
 Coeff:      0.196D-01-0.216D-01 0.270D+00 0.732D+00
 Gap=     0.283 Goal=   None    Shift=    0.000
 RMSDP=3.85D-05 MaxDP=5.92D-04 DE=-1.47D-03 OVMax= 1.22D-03

 Cycle   5  Pass 1  IDiag  1:
 RMSU=  9.14D-06    CP:  9.65D-01  7.12D-01  1.01D+00  8.70D-01
 E= -76.4724774582844     Delta-E=       -0.000012920288 Rises=F Damp=F
 DIIS: error= 1.84D-04 at cycle   5 NSaved=   5.
 NSaved= 5 IEnMin= 5 EnMin= -76.4724774582844     IErMin= 5 ErrMin= 1.84D-04
 ErrMax= 1.84D-04  0.00D+00 EMaxC= 1.00D-01 BMatC= 7.90D-07 BMatP= 2.27D-05
 IDIUse=3 WtCom= 9.98D-01 WtEn= 1.84D-03
 Coeff-Com:  0.281D-02-0.167D-02 0.150D-01 0.755D-01 0.908D+00
 Coeff-En:   0.000D+00 0.000D+00 0.000D+00 0.000D+00 0.100D+01
 Coeff:      0.280D-02-0.167D-02 0.150D-01 0.753D-01 0.909D+00
 Gap=     0.283 Goal=   None    Shift=    0.000
 RMSDP=7.44D-06 MaxDP=1.09D-04 DE=-1.29D-05 OVMax= 2.10D-04

 Cycle   6  Pass 1  IDiag  1:
 RMSU=  1.68D-06    CP:  9.65D-01  7.10D-01  1.01D+00  8.78D-01  9.71D-01
 E= -76.4724780100825     Delta-E=       -0.000000551798 Rises=F Damp=F
 DIIS: error= 4.88D-06 at cycle   6 NSaved=   6.
 NSaved= 6 IEnMin= 6 EnMin= -76.4724780100825     IErMin= 6 ErrMin= 4.88D-06
 ErrMax= 4.88D-06  0.00D+00 EMaxC= 1.00D-01 BMatC= 7.66D-10 BMatP= 7.90D-07
 IDIUse=1 WtCom= 1.00D+00 WtEn= 0.00D+00
 Coeff-Com: -0.574D-04-0.129D-04-0.229D-02-0.928D-02 0.346D-01 0.977D+00
 Coeff:     -0.574D-04-0.129D-04-0.229D-02-0.928D-02 0.346D-01 0.977D+00
 Gap=     0.283 Goal=   None    Shift=    0.000
 RMSDP=2.55D-07 MaxDP=2.95D-06 DE=-5.52D-07 OVMax= 6.42D-06

 Cycle   7  Pass 1  IDiag  1:
 RMSU=  9.63D-08    CP:  9.65D-01  7.10D-01  1.01D+00  8.79D-01  9.87D-01
                    CP:  1.05D+00
 E= -76.4724780105592     Delta-E=       -0.000000000477 Rises=F Damp=F
 DIIS: error= 1.46D-07 at cycle   7 NSaved=   7.
 NSaved= 7 IEnMin= 7 EnMin= -76.4724780105592     IErMin= 7 ErrMin= 1.46D-07
 ErrMax= 1.46D-07  0.00D+00 EMaxC= 1.00D-01 BMatC= 8.35D-13 BMatP= 7.66D-10
 IDIUse=1 WtCom= 1.00D+00 WtEn= 0.00D+00
 Coeff-Com: -0.856D-05-0.225D-05-0.842D-04-0.524D-03-0.132D-02 0.440D-01
 Coeff-Com:  0.958D+00
 Coeff:     -0.856D-05-0.225D-05-0.842D-04-0.524D-03-0.132D-02 0.440D-01
 Coeff:      0.958D+00
 Gap=     0.283 Goal=   None    Shift=    0.000
 RMSDP=8.15D-09 MaxDP=1.07D-07 DE=-4.77D-10 OVMax= 2.42D-07

 Error on total polarization charges =  0.00394
 SCF Done:  E(RB-P86) =  -76.4724780106     A.U. after    7 cycles
            NFock=  7  Conv=0.82D-08     -V/T= 2.0030
 KE= 7.624069378519D+01 PE=-1.994601056483D+02 EE= 3.749382508464D+01
 Leave Link  502 at Thu Jan 11 15:48:11 2018, MaxMem=  2097152000 cpu:        30.8
 (Enter /home/chemsoft/gaussian/g09e01/g09/l508.exe)
 QCSCF skips out because SCF is already converged.
 Leave Link  508 at Thu Jan 11 15:48:11 2018, MaxMem=  2097152000 cpu:         0.0
 (Enter /home/chemsoft/gaussian/g09e01/g09/l601.exe)
 Copying SCF densities to generalized density rwf, IOpCl= 0 IROHF=0.

 **********************************************************************

            Population analysis using the SCF density.

 **********************************************************************

 Orbital symmetries:
       Occupied  (A1) (A1) (B2) (A1) (B1)
       Virtual   (A1) (B2) (B2) (A1) (A1) (B1) (B2) (A1) (A2) (A1)
                 (B1) (B2) (A1) (B2) (B2) (B1) (A1) (A2) (A1) (A1)
                 (B2) (B1) (A1) (B1) (A1) (A2) (B2) (A1) (B2) (B2)
                 (A1) (A2) (B1) (A2) (B1) (A1) (B2) (B2) (A1) (B2)
                 (A1) (B1) (A1) (B1) (A2) (A1) (B1) (B2) (A2) (A1)
                 (B2) (B2) (A1) (A1)
 The electronic state is 1-A1.
 Alpha  occ. eigenvalues --  -18.76494  -0.93083  -0.49507  -0.33696  -0.26824
 Alpha virt. eigenvalues --    0.01519   0.09568   0.33597   0.35697   0.37181
 Alpha virt. eigenvalues --    0.38266   0.50289   0.52244   0.63229   0.63742
 Alpha virt. eigenvalues --    0.74853   0.96015   1.12523   1.20420   1.64006
 Alpha virt. eigenvalues --    1.65957   1.71946   1.72804   1.77958   2.07278
 Alpha virt. eigenvalues --    2.27637   2.44334   2.60461   3.02694   3.11499
 Alpha virt. eigenvalues --    3.15958   3.19113   3.22613   3.30324   3.45145
 Alpha virt. eigenvalues --    3.50885   3.55878   3.56336   3.95788   4.03650
 Alpha virt. eigenvalues --    4.04688   4.05487   4.53040   4.57766   4.69079
 Alpha virt. eigenvalues --    4.83952   5.46801   5.93457   6.27384   6.29927
 Alpha virt. eigenvalues --    6.41805   6.43477   6.56711   6.65608   6.80065
 Alpha virt. eigenvalues --    7.21933   7.24503   7.57521  43.16334
     Molecular Orbital Coefficients:
                           1         2         3         4         5
                        (A1)--O   (A1)--O   (B2)--O   (A1)--O   (B1)--O
     Eigenvalues --   -18.76494  -0.93083  -0.49507  -0.33696  -0.26824
   1 1   O  1S          0.43577  -0.09833   0.00000  -0.03500   0.00000
   2        2S          0.63837  -0.22953   0.00000  -0.08305   0.00000
   3        3S          0.03650   0.34262   0.00000   0.12555   0.00000
   4        4S         -0.02166   0.40401   0.00000   0.19462   0.00000
   5        5S          0.00706   0.15214   0.00000   0.23777   0.00000
   6        6PX         0.00000   0.00000   0.00000   0.00000   0.47397
   7        6PY         0.00000   0.00000   0.39011   0.00000   0.00000
   8        6PZ        -0.00200  -0.08748   0.00000   0.42324   0.00000
   9        7PX         0.00000   0.00000   0.00000   0.00000   0.36966
  10        7PY         0.00000   0.00000   0.26346   0.00000   0.00000
  11        7PZ         0.00195  -0.05872   0.00000   0.31182   0.00000
  12        8PX         0.00000   0.00000   0.00000   0.00000   0.33166
  13        8PY         0.00000   0.00000   0.11477   0.00000   0.00000
  14        8PZ        -0.00039  -0.00703   0.00000   0.23774   0.00000
  15        9D 0        0.00001   0.00093   0.00000  -0.00526   0.00000
  16        9D+1        0.00000   0.00000   0.00000   0.00000  -0.00500
  17        9D-1        0.00000   0.00000  -0.01074   0.00000   0.00000
  18        9D+2       -0.00056  -0.00421   0.00000   0.00189   0.00000
  19        9D-2        0.00000   0.00000   0.00000   0.00000   0.00000
  20       10D 0       -0.00011   0.00259   0.00000  -0.01519   0.00000
  21       10D+1        0.00000   0.00000   0.00000   0.00000  -0.01620
  22       10D-1        0.00000   0.00000  -0.00901   0.00000   0.00000
  23       10D+2        0.00062  -0.00584   0.00000  -0.00130   0.00000
  24       10D-2        0.00000   0.00000   0.00000   0.00000   0.00000
  25       11F 0        0.00007  -0.00021   0.00000   0.00061   0.00000
  26       11F+1        0.00000   0.00000   0.00000   0.00000   0.00104
  27       11F-1        0.00000   0.00000  -0.00121   0.00000   0.00000
  28       11F+2        0.00006   0.00054   0.00000  -0.00174   0.00000
  29       11F-2        0.00000   0.00000   0.00000   0.00000   0.00000
  30       11F+3        0.00000   0.00000   0.00000   0.00000  -0.00333
  31       11F-3        0.00000   0.00000  -0.00187   0.00000   0.00000
  32 2   H  1S          0.00047   0.09747  -0.15381  -0.08403   0.00000
  33        2S          0.00130   0.08412  -0.21007  -0.13185   0.00000
  34        3S         -0.00118   0.00587  -0.05460  -0.03307   0.00000
  35        4PX         0.00000   0.00000   0.00000   0.00000   0.01214
  36        4PY        -0.00031   0.01339  -0.01182  -0.01028   0.00000
  37        4PZ        -0.00029   0.00849  -0.01395   0.00273   0.00000
  38        5PX         0.00000   0.00000   0.00000   0.00000   0.02945
  39        5PY         0.00071   0.01313  -0.01512  -0.01925   0.00000
  40        5PZ         0.00049   0.00651  -0.01977   0.01505   0.00000
  41        6D 0       -0.00002  -0.00028  -0.00160   0.00326   0.00000
  42        6D+1        0.00000   0.00000   0.00000   0.00000   0.00314
  43        6D-1       -0.00082   0.00390  -0.00595  -0.00005   0.00000
  44        6D+2        0.00049  -0.00320   0.00301   0.00373   0.00000
  45        6D-2        0.00000   0.00000   0.00000   0.00000   0.00499
  46 3   H  1S          0.00047   0.09747   0.15381  -0.08403   0.00000
  47        2S          0.00130   0.08412   0.21007  -0.13185   0.00000
  48        3S         -0.00118   0.00587   0.05460  -0.03307   0.00000
  49        4PX         0.00000   0.00000   0.00000   0.00000   0.01214
  50        4PY         0.00031  -0.01339  -0.01182   0.01028   0.00000
  51        4PZ        -0.00029   0.00849   0.01395   0.00273   0.00000
  52        5PX         0.00000   0.00000   0.00000   0.00000   0.02945
  53        5PY        -0.00071  -0.01313  -0.01512   0.01925   0.00000
  54        5PZ         0.00049   0.00651   0.01977   0.01505   0.00000
  55        6D 0       -0.00002  -0.00028   0.00160   0.00326   0.00000
  56        6D+1        0.00000   0.00000   0.00000   0.00000   0.00314
  57        6D-1        0.00082  -0.00390  -0.00595   0.00005   0.00000
  58        6D+2        0.00049  -0.00320  -0.00301   0.00373   0.00000
  59        6D-2        0.00000   0.00000   0.00000   0.00000  -0.00499
                           6         7         8         9        10
                        (A1)--V   (B2)--V   (B2)--V   (A1)--V   (A1)--V
     Eigenvalues --     0.01519   0.09568   0.33597   0.35697   0.37181
   1 1   O  1S         -0.03852   0.00000   0.00000   0.01200   0.02898
   2        2S         -0.09399   0.00000   0.00000   0.02139   0.06734
   3        3S          0.16782   0.00000   0.00000   0.14865  -0.03636
   4        4S          0.22804   0.00000   0.00000  -1.03089  -0.52715
   5        5S          1.28687   0.00000   0.00000  -1.78734  -0.10933
   6        6PX         0.00000   0.00000   0.00000   0.00000   0.00000
   7        6PY         0.00000   0.26992   0.10302   0.00000   0.00000
   8        6PZ        -0.14876   0.00000   0.00000  -0.32677   0.12070
   9        7PX         0.00000   0.00000   0.00000   0.00000   0.00000
  10        7PY         0.00000   0.25226   0.33365   0.00000   0.00000
  11        7PZ        -0.18573   0.00000   0.00000  -0.16054   0.17477
  12        8PX         0.00000   0.00000   0.00000   0.00000   0.00000
  13        8PY         0.00000   0.72208   1.25488   0.00000   0.00000
  14        8PZ        -0.41696   0.00000   0.00000   1.88669   0.38966
  15        9D 0        0.00060   0.00000   0.00000   0.01186  -0.00939
  16        9D+1        0.00000   0.00000   0.00000   0.00000   0.00000
  17        9D-1        0.00000   0.00339   0.02607   0.00000   0.00000
  18        9D+2        0.00378   0.00000   0.00000  -0.00831  -0.01776
  19        9D-2        0.00000   0.00000   0.00000   0.00000   0.00000
  20       10D 0        0.01505   0.00000   0.00000  -0.04153   0.02339
  21       10D+1        0.00000   0.00000   0.00000   0.00000   0.00000
  22       10D-1        0.00000  -0.01404  -0.10277   0.00000   0.00000
  23       10D+2       -0.01857   0.00000   0.00000   0.15630   0.01732
  24       10D-2        0.00000   0.00000   0.00000   0.00000   0.00000
  25       11F 0        0.00000   0.00000   0.00000  -0.00907  -0.00992
  26       11F+1        0.00000   0.00000   0.00000   0.00000   0.00000
  27       11F-1        0.00000  -0.00114   0.00978   0.00000   0.00000
  28       11F+2        0.00188   0.00000   0.00000  -0.02142  -0.01375
  29       11F-2        0.00000   0.00000   0.00000   0.00000   0.00000
  30       11F+3        0.00000   0.00000   0.00000   0.00000   0.00000
  31       11F-3        0.00000  -0.00126  -0.01300   0.00000   0.00000
  32 2   H  1S         -0.04456   0.04084   0.12414  -0.03127   0.13550
  33        2S         -0.30857   0.21185   1.46059   1.16146   1.22799
  34        3S         -0.91962   1.55757  -0.49964   0.46079  -0.68406
  35        4PX         0.00000   0.00000   0.00000   0.00000   0.00000
  36        4PY         0.01583  -0.01420   0.04394   0.02301   0.02605
  37        4PZ         0.00643  -0.01524   0.01995   0.02552   0.01944
  38        5PX         0.00000   0.00000   0.00000   0.00000   0.00000
  39        5PY        -0.06973   0.03609   0.08375   0.51832  -0.18702
  40        5PZ        -0.02982   0.02979  -0.00644   0.22871   0.10487
  41        6D 0       -0.00013  -0.00247  -0.00721  -0.00625   0.01425
  42        6D+1        0.00000   0.00000   0.00000   0.00000   0.00000
  43        6D-1       -0.00340   0.00310   0.02450   0.03647   0.01639
  44        6D+2        0.00307  -0.00368  -0.01411  -0.03583  -0.00654
  45        6D-2        0.00000   0.00000   0.00000   0.00000   0.00000
  46 3   H  1S         -0.04456  -0.04084  -0.12414  -0.03127   0.13550
  47        2S         -0.30857  -0.21185  -1.46059   1.16146   1.22799
  48        3S         -0.91962  -1.55757   0.49964   0.46079  -0.68406
  49        4PX         0.00000   0.00000   0.00000   0.00000   0.00000
  50        4PY        -0.01583  -0.01420   0.04394  -0.02301  -0.02605
  51        4PZ         0.00643   0.01524  -0.01995   0.02552   0.01944
  52        5PX         0.00000   0.00000   0.00000   0.00000   0.00000
  53        5PY         0.06973   0.03609   0.08375  -0.51832   0.18702
  54        5PZ        -0.02982  -0.02979   0.00644   0.22871   0.10487
  55        6D 0       -0.00013   0.00247   0.00721  -0.00625   0.01425
  56        6D+1        0.00000   0.00000   0.00000   0.00000   0.00000
  57        6D-1        0.00340   0.00310   0.02450  -0.03647  -0.01639
  58        6D+2        0.00307   0.00368   0.01411  -0.03583  -0.00654
  59        6D-2        0.00000   0.00000   0.00000   0.00000   0.00000
                          11        12        13        14        15
                        (B1)--V   (B2)--V   (A1)--V   (A2)--V   (A1)--V
     Eigenvalues --     0.38266   0.50289   0.52244   0.63229   0.63742
   1 1   O  1S          0.00000   0.00000   0.05040   0.00000   0.01007
   2        2S          0.00000   0.00000   0.10954   0.00000   0.02103
   3        3S          0.00000   0.00000  -0.07021   0.00000  -0.05050
   4        4S          0.00000   0.00000  -1.15387   0.00000  -0.14046
   5        5S          0.00000   0.00000   5.45916   0.00000   3.43005
   6        6PX        -0.32862   0.00000   0.00000   0.00000   0.00000
   7        6PY         0.00000  -0.35928   0.00000   0.00000   0.00000
   8        6PZ         0.00000   0.00000   0.05860   0.00000  -0.09718
   9        7PX        -0.67572   0.00000   0.00000   0.00000   0.00000
  10        7PY         0.00000  -0.00894   0.00000   0.00000   0.00000
  11        7PZ         0.00000   0.00000  -0.41280   0.00000  -0.69766
  12        8PX         1.27684   0.00000   0.00000   0.00000   0.00000
  13        8PY         0.00000   2.59113   0.00000   0.00000   0.00000
  14        8PZ         0.00000   0.00000  -0.99667   0.00000  -1.67688
  15        9D 0        0.00000   0.00000   0.00732   0.00000  -0.03077
  16        9D+1        0.00749   0.00000   0.00000   0.00000   0.00000
  17        9D-1        0.00000   0.01553   0.00000   0.00000   0.00000
  18        9D+2        0.00000   0.00000   0.02222   0.00000  -0.00167
  19        9D-2        0.00000   0.00000   0.00000  -0.02694   0.00000
  20       10D 0        0.00000   0.00000  -0.01849   0.00000   0.07312
  21       10D+1       -0.01294   0.00000   0.00000   0.00000   0.00000
  22       10D-1        0.00000  -0.26912   0.00000   0.00000   0.00000
  23       10D+2        0.00000   0.00000  -0.18973   0.00000  -0.02444
  24       10D-2        0.00000   0.00000   0.00000   0.00099   0.00000
  25       11F 0        0.00000   0.00000   0.01418   0.00000  -0.00162
  26       11F+1       -0.00022   0.00000   0.00000   0.00000   0.00000
  27       11F-1        0.00000   0.01281   0.00000   0.00000   0.00000
  28       11F+2        0.00000   0.00000   0.02185   0.00000   0.02262
  29       11F-2        0.00000   0.00000   0.00000  -0.01379   0.00000
  30       11F+3        0.00128   0.00000   0.00000   0.00000   0.00000
  31       11F-3        0.00000  -0.01210   0.00000   0.00000   0.00000
  32 2   H  1S          0.00000  -0.06818   0.03575   0.00000   0.00326
  33        2S          0.00000   0.81137  -1.39953   0.00000  -1.78503
  34        3S          0.00000   2.00476  -1.17899   0.00000  -0.35884
  35        4PX         0.00903   0.00000   0.00000  -0.04124   0.00000
  36        4PY         0.00000   0.03356  -0.02601   0.00000  -0.00700
  37        4PZ         0.00000   0.01319  -0.01144   0.00000  -0.04740
  38        5PX        -0.06121   0.00000   0.00000   0.81301   0.00000
  39        5PY         0.00000   0.52651  -0.40281   0.00000  -0.81353
  40        5PZ         0.00000   0.44656  -0.54263   0.00000   0.48240
  41        6D 0        0.00000  -0.00440  -0.01399   0.00000   0.03616
  42        6D+1       -0.00042   0.00000   0.00000   0.02532   0.00000
  43        6D-1        0.00000   0.04683  -0.04643   0.00000  -0.00410
  44        6D+2        0.00000  -0.03254   0.02601   0.00000   0.06319
  45        6D-2       -0.00257   0.00000   0.00000   0.01544   0.00000
  46 3   H  1S          0.00000   0.06818   0.03575   0.00000   0.00326
  47        2S          0.00000  -0.81137  -1.39953   0.00000  -1.78503
  48        3S          0.00000  -2.00476  -1.17899   0.00000  -0.35884
  49        4PX         0.00903   0.00000   0.00000   0.04124   0.00000
  50        4PY         0.00000   0.03356   0.02601   0.00000   0.00700
  51        4PZ         0.00000  -0.01319  -0.01144   0.00000  -0.04740
  52        5PX        -0.06121   0.00000   0.00000  -0.81301   0.00000
  53        5PY         0.00000   0.52651   0.40281   0.00000   0.81353
  54        5PZ         0.00000  -0.44656  -0.54263   0.00000   0.48240
  55        6D 0        0.00000   0.00440  -0.01399   0.00000   0.03616
  56        6D+1       -0.00042   0.00000   0.00000  -0.02532   0.00000
  57        6D-1        0.00000   0.04683   0.04643   0.00000   0.00410
  58        6D+2        0.00000   0.03254   0.02601   0.00000   0.06319
  59        6D-2        0.00257   0.00000   0.00000   0.01544   0.00000
                          16        17        18        19        20
                        (B1)--V   (B2)--V   (A1)--V   (B2)--V   (B2)--V
     Eigenvalues --     0.74853   0.96015   1.12523   1.20420   1.64006
   1 1   O  1S          0.00000   0.00000  -0.02955   0.00000   0.00000
   2        2S          0.00000   0.00000  -0.05709   0.00000   0.00000
   3        3S          0.00000   0.00000  -0.48272   0.00000   0.00000
   4        4S          0.00000   0.00000   4.39412   0.00000   0.00000
   5        5S          0.00000   0.00000   3.92995   0.00000   0.00000
   6        6PX        -0.08496   0.00000   0.00000   0.00000   0.00000
   7        6PY         0.00000   0.05468   0.00000   0.21043   0.04081
   8        6PZ         0.00000   0.00000  -0.15850   0.00000   0.00000
   9        7PX        -0.27642   0.00000   0.00000   0.00000   0.00000
  10        7PY         0.00000   0.32865   0.00000   2.33690   2.70622
  11        7PZ         0.00000   0.00000  -1.90148   0.00000   0.00000
  12        8PX        -0.85399   0.00000   0.00000   0.00000   0.00000
  13        8PY         0.00000   1.57000   0.00000   1.19745   2.11127
  14        8PZ         0.00000   0.00000  -0.94351   0.00000   0.00000
  15        9D 0        0.00000   0.00000   0.00182   0.00000   0.00000
  16        9D+1       -0.01955   0.00000   0.00000   0.00000   0.00000
  17        9D-1        0.00000  -0.00330   0.00000   0.01320  -0.00840
  18        9D+2        0.00000   0.00000   0.01009   0.00000   0.00000
  19        9D-2        0.00000   0.00000   0.00000   0.00000   0.00000
  20       10D 0        0.00000   0.00000  -0.01556   0.00000   0.00000
  21       10D+1       -0.05754   0.00000   0.00000   0.00000   0.00000
  22       10D-1        0.00000  -0.05807   0.00000  -0.30135  -1.76167
  23       10D+2        0.00000   0.00000  -0.26402   0.00000   0.00000
  24       10D-2        0.00000   0.00000   0.00000   0.00000   0.00000
  25       11F 0        0.00000   0.00000   0.03417   0.00000   0.00000
  26       11F+1       -0.00274   0.00000   0.00000   0.00000   0.00000
  27       11F-1        0.00000  -0.00140   0.00000   0.01585   0.09601
  28       11F+2        0.00000   0.00000   0.06913   0.00000   0.00000
  29       11F-2        0.00000   0.00000   0.00000   0.00000   0.00000
  30       11F+3        0.01528   0.00000   0.00000   0.00000   0.00000
  31       11F-3        0.00000  -0.00990   0.00000  -0.03035  -0.09964
  32 2   H  1S          0.00000  -0.00357  -0.02799   0.12343  -0.38000
  33        2S          0.00000   0.87493  -3.31005   2.51507   4.56284
  34        3S          0.00000   0.29825  -0.62725   1.03506   0.30071
  35        4PX        -0.05628   0.00000   0.00000   0.00000   0.00000
  36        4PY         0.00000   0.05123  -0.04837   0.01517   0.19450
  37        4PZ         0.00000  -0.03645  -0.03126   0.00924   0.16884
  38        5PX         0.97351   0.00000   0.00000   0.00000   0.00000
  39        5PY         0.00000  -0.58029  -2.06235   1.95841   1.76903
  40        5PZ         0.00000   0.99433  -1.41877   1.43901   1.14143
  41        6D 0        0.00000   0.01451  -0.00923  -0.00983  -0.02362
  42        6D+1        0.00098   0.00000   0.00000   0.00000   0.00000
  43        6D-1        0.00000   0.01283  -0.14685   0.14637   0.22361
  44        6D+2        0.00000  -0.00672   0.13391  -0.08617  -0.14083
  45        6D-2        0.03814   0.00000   0.00000   0.00000   0.00000
  46 3   H  1S          0.00000   0.00357  -0.02799  -0.12343   0.38000
  47        2S          0.00000  -0.87493  -3.31005  -2.51507  -4.56284
  48        3S          0.00000  -0.29825  -0.62725  -1.03506  -0.30071
  49        4PX        -0.05628   0.00000   0.00000   0.00000   0.00000
  50        4PY         0.00000   0.05123   0.04837   0.01517   0.19450
  51        4PZ         0.00000   0.03645  -0.03126  -0.00924  -0.16884
  52        5PX         0.97351   0.00000   0.00000   0.00000   0.00000
  53        5PY         0.00000  -0.58029   2.06235   1.95841   1.76903
  54        5PZ         0.00000  -0.99433  -1.41877  -1.43901  -1.14143
  55        6D 0        0.00000  -0.01451  -0.00923   0.00983   0.02362
  56        6D+1        0.00098   0.00000   0.00000   0.00000   0.00000
  57        6D-1        0.00000   0.01283   0.14685   0.14637   0.22361
  58        6D+2        0.00000   0.00672   0.13391   0.08617   0.14083
  59        6D-2       -0.03814   0.00000   0.00000   0.00000   0.00000
                          21        22        23        24        25
                        (B1)--V   (A1)--V   (A2)--V   (A1)--V   (A1)--V
     Eigenvalues --     1.65957   1.71946   1.72804   1.77958   2.07278
   1 1   O  1S          0.00000  -0.00262   0.00000  -0.00785   0.03410
   2        2S          0.00000  -0.02079   0.00000  -0.01941   0.11144
   3        3S          0.00000   0.70241   0.00000  -0.02376  -0.98825
   4        4S          0.00000  -3.65711   0.00000   0.59330   2.90261
   5        5S          0.00000  -4.31362   0.00000   3.33898   0.77646
   6        6PX        -0.06460   0.00000   0.00000   0.00000   0.00000
   7        6PY         0.00000   0.00000   0.00000   0.00000   0.00000
   8        6PZ         0.00000   0.03294   0.00000  -0.27909   0.40849
   9        7PX        -0.11208   0.00000   0.00000   0.00000   0.00000
  10        7PY         0.00000   0.00000   0.00000   0.00000   0.00000
  11        7PZ         0.00000   1.54625   0.00000  -0.41730  -1.43003
  12        8PX        -0.62463   0.00000   0.00000   0.00000   0.00000
  13        8PY         0.00000   0.00000   0.00000   0.00000   0.00000
  14        8PZ         0.00000   1.31536   0.00000  -1.62309  -0.62161
  15        9D 0        0.00000  -0.00054   0.00000   0.00441   0.00541
  16        9D+1       -0.00359   0.00000   0.00000   0.00000   0.00000
  17        9D-1        0.00000   0.00000   0.00000   0.00000   0.00000
  18        9D+2        0.00000   0.01481   0.00000   0.00398  -0.02055
  19        9D-2        0.00000   0.00000  -0.00180   0.00000   0.00000
  20       10D 0        0.00000   0.44825   0.00000   1.06380   0.67664
  21       10D+1        1.13718   0.00000   0.00000   0.00000   0.00000
  22       10D-1        0.00000   0.00000   0.00000   0.00000   0.00000
  23       10D+2        0.00000   1.42647   0.00000  -0.59876   0.25116
  24       10D-2        0.00000   0.00000   1.25559   0.00000   0.00000
  25       11F 0        0.00000  -0.09470   0.00000  -0.00950   0.07404
  26       11F+1       -0.01195   0.00000   0.00000   0.00000   0.00000
  27       11F-1        0.00000   0.00000   0.00000   0.00000   0.00000
  28       11F+2        0.00000  -0.16999   0.00000   0.00732   0.15527
  29       11F-2        0.00000   0.00000  -0.01957   0.00000   0.00000
  30       11F+3        0.00144   0.00000   0.00000   0.00000   0.00000
  31       11F-3        0.00000   0.00000   0.00000   0.00000   0.00000
  32 2   H  1S          0.00000  -0.47013   0.00000  -0.08373   0.67193
  33        2S          0.00000   4.32722   0.00000  -1.89038  -2.31243
  34        3S          0.00000   0.17519   0.00000  -0.44664   0.29702
  35        4PX        -0.02477   0.00000  -0.04946   0.00000   0.00000
  36        4PY         0.00000   0.22665   0.00000   0.02498  -0.15188
  37        4PZ         0.00000   0.09257   0.00000  -0.02847  -0.18482
  38        5PX         0.67177   0.00000   0.64953   0.00000   0.00000
  39        5PY         0.00000   1.20844   0.00000  -0.94632  -0.80389
  40        5PZ         0.00000   1.22963   0.00000   0.02779   0.03905
  41        6D 0        0.00000   0.03915   0.00000   0.04162  -0.01283
  42        6D+1        0.07225   0.00000  -0.01195   0.00000   0.00000
  43        6D-1        0.00000   0.20293   0.00000  -0.04150  -0.09237
  44        6D+2        0.00000  -0.13414   0.00000  -0.00192   0.20904
  45        6D-2       -0.01745   0.00000   0.06174   0.00000   0.00000
  46 3   H  1S          0.00000  -0.47013   0.00000  -0.08373   0.67193
  47        2S          0.00000   4.32722   0.00000  -1.89038  -2.31243
  48        3S          0.00000   0.17519   0.00000  -0.44664   0.29702
  49        4PX        -0.02477   0.00000   0.04946   0.00000   0.00000
  50        4PY         0.00000  -0.22665   0.00000  -0.02498   0.15188
  51        4PZ         0.00000   0.09257   0.00000  -0.02847  -0.18482
  52        5PX         0.67177   0.00000  -0.64953   0.00000   0.00000
  53        5PY         0.00000  -1.20844   0.00000   0.94632   0.80389
  54        5PZ         0.00000   1.22963   0.00000   0.02779   0.03905
  55        6D 0        0.00000   0.03915   0.00000   0.04162  -0.01283
  56        6D+1        0.07225   0.00000   0.01195   0.00000   0.00000
  57        6D-1        0.00000  -0.20293   0.00000   0.04150   0.09237
  58        6D+2        0.00000  -0.13414   0.00000  -0.00192   0.20904
  59        6D-2        0.01745   0.00000   0.06174   0.00000   0.00000
                          26        27        28        29        30
                        (B2)--V   (B1)--V   (A1)--V   (B1)--V   (A1)--V
     Eigenvalues --     2.27637   2.44334   2.60461   3.02694   3.11499
   1 1   O  1S          0.00000   0.00000  -0.09301   0.00000   0.03990
   2        2S          0.00000   0.00000  -0.30959   0.00000   0.14370
   3        3S          0.00000   0.00000   1.92338   0.00000  -1.41054
   4        4S          0.00000   0.00000  -2.25587   0.00000   3.93149
   5        5S          0.00000   0.00000   3.35738   0.00000   1.33000
   6        6PX         0.00000  -1.19320   0.00000   0.03303   0.00000
   7        6PY        -0.74022   0.00000   0.00000   0.00000   0.00000
   8        6PZ         0.00000   0.00000   0.85689   0.00000   0.36139
   9        7PX         0.00000   1.66346   0.00000  -0.09695   0.00000
  10        7PY         2.31930   0.00000   0.00000   0.00000   0.00000
  11        7PZ         0.00000   0.00000  -1.56734   0.00000  -1.45574
  12        8PX         0.00000  -0.53032   0.00000   0.20606   0.00000
  13        8PY        -0.32149   0.00000   0.00000   0.00000   0.00000
  14        8PZ         0.00000   0.00000  -0.29850   0.00000  -0.38943
  15        9D 0        0.00000   0.00000   0.00816   0.00000   0.02651
  16        9D+1        0.00000  -0.00214   0.00000  -0.03179   0.00000
  17        9D-1       -0.00745   0.00000   0.00000   0.00000   0.00000
  18        9D+2        0.00000   0.00000  -0.01130   0.00000   0.00734
  19        9D-2        0.00000   0.00000   0.00000   0.00000   0.00000
  20       10D 0        0.00000   0.00000   0.13766   0.00000  -0.37726
  21       10D+1        0.00000  -0.11540   0.00000  -0.33781   0.00000
  22       10D-1        0.15222   0.00000   0.00000   0.00000   0.00000
  23       10D+2        0.00000   0.00000  -0.31536   0.00000  -0.35467
  24       10D-2        0.00000   0.00000   0.00000   0.00000   0.00000
  25       11F 0        0.00000   0.00000  -0.00306   0.00000  -0.06016
  26       11F+1        0.00000   0.00273   0.00000  -0.11069   0.00000
  27       11F-1        0.07398   0.00000   0.00000   0.00000   0.00000
  28       11F+2        0.00000   0.00000  -0.00158   0.00000   0.07865
  29       11F-2        0.00000   0.00000   0.00000   0.00000   0.00000
  30       11F+3        0.00000  -0.00367   0.00000  -0.09638   0.00000
  31       11F-3       -0.11157   0.00000   0.00000   0.00000   0.00000
  32 2   H  1S         -0.61155   0.00000  -0.03266   0.00000  -0.03626
  33        2S          2.01085   0.00000  -1.10941   0.00000  -2.08559
  34        3S         -0.62699   0.00000  -0.43011   0.00000  -0.07332
  35        4PX         0.00000   0.08798   0.00000   0.21358   0.00000
  36        4PY         0.21541   0.00000   0.03425   0.00000  -0.08661
  37        4PZ         0.11735   0.00000  -0.04886   0.00000  -0.06749
  38        5PX         0.00000  -0.24244   0.00000  -0.22530   0.00000
  39        5PY         0.55559   0.00000  -0.51859   0.00000  -0.94178
  40        5PZ         0.57742   0.00000  -0.13619   0.00000  -0.71263
  41        6D 0       -0.05619   0.00000   0.00400   0.00000   0.17139
  42        6D+1        0.00000  -0.01552   0.00000   0.55351   0.00000
  43        6D-1        0.22271   0.00000  -0.01239   0.00000  -0.50961
  44        6D+2       -0.03701   0.00000   0.00472   0.00000  -0.40055
  45        6D-2        0.00000  -0.00642   0.00000  -0.32389   0.00000
  46 3   H  1S          0.61155   0.00000  -0.03266   0.00000  -0.03626
  47        2S         -2.01085   0.00000  -1.10941   0.00000  -2.08559
  48        3S          0.62699   0.00000  -0.43011   0.00000  -0.07332
  49        4PX         0.00000   0.08798   0.00000   0.21358   0.00000
  50        4PY         0.21541   0.00000  -0.03425   0.00000   0.08661
  51        4PZ        -0.11735   0.00000  -0.04886   0.00000  -0.06749
  52        5PX         0.00000  -0.24244   0.00000  -0.22530   0.00000
  53        5PY         0.55559   0.00000   0.51859   0.00000   0.94178
  54        5PZ        -0.57742   0.00000  -0.13619   0.00000  -0.71263
  55        6D 0        0.05619   0.00000   0.00400   0.00000   0.17139
  56        6D+1        0.00000  -0.01552   0.00000   0.55351   0.00000
  57        6D-1        0.22271   0.00000   0.01239   0.00000   0.50961
  58        6D+2        0.03701   0.00000   0.00472   0.00000  -0.40055
  59        6D-2        0.00000   0.00642   0.00000   0.32389   0.00000
                          31        32        33        34        35
                        (A2)--V   (B2)--V   (A1)--V   (B2)--V   (B2)--V
     Eigenvalues --     3.15958   3.19113   3.22613   3.30324   3.45145
   1 1   O  1S          0.00000   0.00000   0.06639   0.00000   0.00000
   2        2S          0.00000   0.00000   0.22224   0.00000   0.00000
   3        3S          0.00000   0.00000  -2.03426   0.00000   0.00000
   4        4S          0.00000   0.00000   5.76781   0.00000   0.00000
   5        5S          0.00000   0.00000   1.53304   0.00000   0.00000
   6        6PX         0.00000   0.00000   0.00000   0.00000   0.00000
   7        6PY         0.00000  -0.64165   0.00000  -0.49259  -0.02394
   8        6PZ         0.00000   0.00000   0.51758   0.00000   0.00000
   9        7PX         0.00000   0.00000   0.00000   0.00000   0.00000
  10        7PY         0.00000   2.65067   0.00000   2.10373   0.08950
  11        7PZ         0.00000   0.00000  -2.43960   0.00000   0.00000
  12        8PX         0.00000   0.00000   0.00000   0.00000   0.00000
  13        8PY         0.00000   0.48786   0.00000   0.29657   0.78617
  14        8PZ         0.00000   0.00000  -0.36259   0.00000   0.00000
  15        9D 0        0.00000   0.00000  -0.00704   0.00000   0.00000
  16        9D+1        0.00000   0.00000   0.00000   0.00000   0.00000
  17        9D-1        0.00000  -0.03373   0.00000  -0.13258   0.02195
  18        9D+2        0.00000   0.00000  -0.07994   0.00000   0.00000
  19        9D-2       -0.05824   0.00000   0.00000   0.00000   0.00000
  20       10D 0        0.00000   0.00000   0.18757   0.00000   0.00000
  21       10D+1        0.00000   0.00000   0.00000   0.00000   0.00000
  22       10D-1        0.00000  -0.55831   0.00000  -0.64676  -0.44991
  23       10D+2        0.00000   0.00000  -0.77622   0.00000   0.00000
  24       10D-2       -0.02741   0.00000   0.00000   0.00000   0.00000
  25       11F 0        0.00000   0.00000   0.00957   0.00000   0.00000
  26       11F+1        0.00000   0.00000   0.00000   0.00000   0.00000
  27       11F-1        0.00000  -0.04846   0.00000   0.00576  -0.16323
  28       11F+2        0.00000   0.00000  -0.04179   0.00000   0.00000
  29       11F-2        0.12526   0.00000   0.00000   0.00000   0.00000
  30       11F+3        0.00000   0.00000   0.00000   0.00000   0.00000
  31       11F-3        0.00000   0.07404   0.00000   0.00545  -0.07712
  32 2   H  1S          0.00000   0.19822  -0.50433   0.46225   0.09829
  33        2S          0.00000   2.00389  -2.40184   1.35108   0.48516
  34        3S          0.00000   0.23257  -0.20307   0.41765   0.20532
  35        4PX         0.45268   0.00000   0.00000   0.00000   0.00000
  36        4PY         0.00000   0.07728   0.17961  -0.40822   0.46148
  37        4PZ         0.00000  -0.13332   0.01107  -0.10309  -0.59895
  38        5PX        -0.27209   0.00000   0.00000   0.00000   0.00000
  39        5PY         0.00000   1.04385  -1.55831   1.25986  -0.22450
  40        5PZ         0.00000   0.94759  -0.94625   0.74622   0.55365
  41        6D 0        0.00000   0.42632  -0.03258  -0.22302  -0.29384
  42        6D+1       -0.41145   0.00000   0.00000   0.00000   0.00000
  43        6D-1        0.00000  -0.05599  -0.21897   0.47540  -0.02065
  44        6D+2        0.00000  -0.42413   0.47657  -0.05533  -0.04369
  45        6D-2        0.39903   0.00000   0.00000   0.00000   0.00000
  46 3   H  1S          0.00000  -0.19822  -0.50433  -0.46225  -0.09829
  47        2S          0.00000  -2.00389  -2.40184  -1.35108  -0.48516
  48        3S          0.00000  -0.23257  -0.20307  -0.41765  -0.20532
  49        4PX        -0.45268   0.00000   0.00000   0.00000   0.00000
  50        4PY         0.00000   0.07728  -0.17961  -0.40822   0.46148
  51        4PZ         0.00000   0.13332   0.01107   0.10309   0.59895
  52        5PX         0.27209   0.00000   0.00000   0.00000   0.00000
  53        5PY         0.00000   1.04385   1.55831   1.25986  -0.22450
  54        5PZ         0.00000  -0.94759  -0.94625  -0.74622  -0.55365
  55        6D 0        0.00000  -0.42632  -0.03258   0.22302   0.29384
  56        6D+1        0.41145   0.00000   0.00000   0.00000   0.00000
  57        6D-1        0.00000  -0.05599   0.21897   0.47540  -0.02065
  58        6D+2        0.00000   0.42413   0.47657   0.05533   0.04369
  59        6D-2        0.39903   0.00000   0.00000   0.00000   0.00000
                          36        37        38        39        40
                        (A1)--V   (A2)--V   (B1)--V   (A2)--V   (B1)--V
     Eigenvalues --     3.50885   3.55878   3.56336   3.95788   4.03650
   1 1   O  1S          0.00038   0.00000   0.00000   0.00000   0.00000
   2        2S          0.00693   0.00000   0.00000   0.00000   0.00000
   3        3S          0.00623   0.00000   0.00000   0.00000   0.00000
   4        4S         -0.59842   0.00000   0.00000   0.00000   0.00000
   5        5S          0.09823   0.00000   0.00000   0.00000   0.00000
   6        6PX         0.00000   0.00000   0.14384   0.00000  -0.10036
   7        6PY         0.00000   0.00000   0.00000   0.00000   0.00000
   8        6PZ        -0.06566   0.00000   0.00000   0.00000   0.00000
   9        7PX         0.00000   0.00000  -0.00200   0.00000   1.14387
  10        7PY         0.00000   0.00000   0.00000   0.00000   0.00000
  11        7PZ        -0.07685   0.00000   0.00000   0.00000   0.00000
  12        8PX         0.00000   0.00000   0.46103   0.00000   0.06301
  13        8PY         0.00000   0.00000   0.00000   0.00000   0.00000
  14        8PZ        -0.36222   0.00000   0.00000   0.00000   0.00000
  15        9D 0       -0.00714   0.00000   0.00000   0.00000   0.00000
  16        9D+1        0.00000   0.00000  -0.03496   0.00000   0.07745
  17        9D-1        0.00000   0.00000   0.00000   0.00000   0.00000
  18        9D+2        0.00267   0.00000   0.00000   0.00000   0.00000
  19        9D-2        0.00000  -0.01217   0.00000  -0.11012   0.00000
  20       10D 0        0.29451   0.00000   0.00000   0.00000   0.00000
  21       10D+1        0.00000   0.00000   0.01116   0.00000  -0.81048
  22       10D-1        0.00000   0.00000   0.00000   0.00000   0.00000
  23       10D+2        0.22697   0.00000   0.00000   0.00000   0.00000
  24       10D-2        0.00000   0.11358   0.00000   1.12301   0.00000
  25       11F 0       -0.16136   0.00000   0.00000   0.00000   0.00000
  26       11F+1        0.00000   0.00000   0.12289   0.00000  -0.15335
  27       11F-1        0.00000   0.00000   0.00000   0.00000   0.00000
  28       11F+2       -0.01549   0.00000   0.00000   0.00000   0.00000
  29       11F-2        0.00000   0.18183   0.00000   0.08384   0.00000
  30       11F+3        0.00000   0.00000  -0.17190   0.00000   0.13007
  31       11F-3        0.00000   0.00000   0.00000   0.00000   0.00000
  32 2   H  1S          0.07991   0.00000   0.00000   0.00000   0.00000
  33        2S          0.06526   0.00000   0.00000   0.00000   0.00000
  34        3S          0.02336   0.00000   0.00000   0.00000   0.00000
  35        4PX         0.00000   0.71074   0.82490   0.04053  -0.08357
  36        4PY         0.34421   0.00000   0.00000   0.00000   0.00000
  37        4PZ        -0.60648   0.00000   0.00000   0.00000   0.00000
  38        5PX         0.00000  -0.49113  -0.68414   0.52482  -0.50360
  39        5PY        -0.15327   0.00000   0.00000   0.00000   0.00000
  40        5PZ         0.69539   0.00000   0.00000   0.00000   0.00000
  41        6D 0        0.47368   0.00000   0.00000   0.00000   0.00000
  42        6D+1        0.00000   0.20169  -0.28515   0.72616  -0.39106
  43        6D-1        0.23489   0.00000   0.00000   0.00000   0.00000
  44        6D+2        0.06829   0.00000   0.00000   0.00000   0.00000
  45        6D-2        0.00000  -0.42639  -0.08817   0.58965  -0.81287
  46 3   H  1S          0.07991   0.00000   0.00000   0.00000   0.00000
  47        2S          0.06526   0.00000   0.00000   0.00000   0.00000
  48        3S          0.02336   0.00000   0.00000   0.00000   0.00000
  49        4PX         0.00000  -0.71074   0.82490  -0.04053  -0.08357
  50        4PY        -0.34421   0.00000   0.00000   0.00000   0.00000
  51        4PZ        -0.60648   0.00000   0.00000   0.00000   0.00000
  52        5PX         0.00000   0.49113  -0.68414  -0.52482  -0.50360
  53        5PY         0.15327   0.00000   0.00000   0.00000   0.00000
  54        5PZ         0.69539   0.00000   0.00000   0.00000   0.00000
  55        6D 0        0.47368   0.00000   0.00000   0.00000   0.00000
  56        6D+1        0.00000  -0.20169  -0.28515  -0.72616  -0.39106
  57        6D-1       -0.23489   0.00000   0.00000   0.00000   0.00000
  58        6D+2        0.06829   0.00000   0.00000   0.00000   0.00000
  59        6D-2        0.00000  -0.42639   0.08817   0.58965   0.81287
                          41        42        43        44        45
                        (A1)--V   (B2)--V   (B2)--V   (A1)--V   (B2)--V
     Eigenvalues --     4.04688   4.05487   4.53040   4.57766   4.69079
   1 1   O  1S          0.02824   0.00000   0.00000   0.01545   0.00000
   2        2S          0.13454   0.00000   0.00000   0.05872   0.00000
   3        3S         -1.41988   0.00000   0.00000  -0.40351   0.00000
   4        4S          1.83769   0.00000   0.00000  -0.08451   0.00000
   5        5S         -0.47561   0.00000   0.00000  -0.20003   0.00000
   6        6PX         0.00000   0.00000   0.00000   0.00000   0.00000
   7        6PY         0.00000   0.32532   0.60380   0.00000  -0.08629
   8        6PZ         0.29880   0.00000   0.00000   0.30634   0.00000
   9        7PX         0.00000   0.00000   0.00000   0.00000   0.00000
  10        7PY         0.00000  -0.73960   1.43294   0.00000   3.68035
  11        7PZ        -0.42896   0.00000   0.00000  -1.01152   0.00000
  12        8PX         0.00000   0.00000   0.00000   0.00000   0.00000
  13        8PY         0.00000   0.18912   0.80134   0.00000   0.84118
  14        8PZ         0.09754   0.00000   0.00000  -0.01870   0.00000
  15        9D 0        0.04704   0.00000   0.00000  -0.11412   0.00000
  16        9D+1        0.00000   0.00000   0.00000   0.00000   0.00000
  17        9D-1        0.00000  -0.09811   0.16118   0.00000   0.24620
  18        9D+2        0.11735   0.00000   0.00000  -0.05411   0.00000
  19        9D-2        0.00000   0.00000   0.00000   0.00000   0.00000
  20       10D 0       -0.37119   0.00000   0.00000   1.15695   0.00000
  21       10D+1        0.00000   0.00000   0.00000   0.00000   0.00000
  22       10D-1        0.00000   0.87120  -0.61563   0.00000  -1.75177
  23       10D+2       -0.87111   0.00000   0.00000   0.72881   0.00000
  24       10D-2        0.00000   0.00000   0.00000   0.00000   0.00000
  25       11F 0       -0.04768   0.00000   0.00000   0.32814   0.00000
  26       11F+1        0.00000   0.00000   0.00000   0.00000   0.00000
  27       11F-1        0.00000  -0.02911   0.19566   0.00000  -0.12490
  28       11F+2       -0.25636   0.00000   0.00000  -0.28910   0.00000
  29       11F-2        0.00000   0.00000   0.00000   0.00000   0.00000
  30       11F+3        0.00000   0.00000   0.00000   0.00000   0.00000
  31       11F-3        0.00000  -0.15360  -0.31048   0.00000   0.25855
  32 2   H  1S         -0.28342  -0.24515  -0.15959  -0.00807   0.58790
  33        2S         -0.42354  -0.66110   2.40123   0.13971   3.05544
  34        3S          0.23445   0.10305   0.34187   0.06499   0.01158
  35        4PX         0.00000   0.00000   0.00000   0.00000   0.00000
  36        4PY        -0.48180  -0.02487   0.05660  -0.32488   0.80516
  37        4PZ        -0.44717  -0.53006   0.12550   0.35591   0.47307
  38        5PX         0.00000   0.00000   0.00000   0.00000   0.00000
  39        5PY         0.31737  -0.64845   1.49858  -0.05374   1.03428
  40        5PZ        -0.02077   0.43574   0.74973   0.48835   1.03258
  41        6D 0       -0.38811   0.58999  -0.07472   0.76945   0.07931
  42        6D+1        0.00000   0.00000   0.00000   0.00000   0.00000
  43        6D-1        0.31857   0.36255   0.56987   0.38766   0.68981
  44        6D+2       -0.23664   0.33724  -0.85695   0.09296  -0.04207
  45        6D-2        0.00000   0.00000   0.00000   0.00000   0.00000
  46 3   H  1S         -0.28342   0.24515   0.15959  -0.00807  -0.58790
  47        2S         -0.42354   0.66110  -2.40123   0.13971  -3.05544
  48        3S          0.23445  -0.10305  -0.34187   0.06499  -0.01158
  49        4PX         0.00000   0.00000   0.00000   0.00000   0.00000
  50        4PY         0.48180  -0.02487   0.05660   0.32488   0.80516
  51        4PZ        -0.44717   0.53006  -0.12550   0.35591  -0.47307
  52        5PX         0.00000   0.00000   0.00000   0.00000   0.00000
  53        5PY        -0.31737  -0.64845   1.49858   0.05374   1.03428
  54        5PZ        -0.02077  -0.43574  -0.74973   0.48835  -1.03258
  55        6D 0       -0.38811  -0.58999   0.07472   0.76945  -0.07931
[...]
  55        6D 0        0.00000  -0.49922   0.09173  -0.72540  -0.20559
  56        6D+1       -0.45405   0.00000   0.00000   0.00000   0.00000
  57        6D-1        0.00000   0.39100   0.65942   0.33260   0.62048
  58        6D+2        0.00000  -0.22347   0.89061  -0.02241  -0.15004
  59        6D-2        0.75525   0.00000   0.00000   0.00000   0.00000
                          46        47        48        49        50
                        (A1)--V   (B1)--V   (A1)--V   (B1)--V   (A2)--V
     Eigenvalues --     4.84701   5.46180   5.99583   6.23135   6.25745
   1 1   O  1S         -0.04264   0.00000  -0.00504   0.00000   0.00000
   2        2S         -0.11371   0.00000  -0.02895   0.00000   0.00000
   3        3S         -0.44317   0.00000   0.55320   0.00000   0.00000
   4        4S          5.47956   0.00000  -1.32527   0.00000   0.00000
   5        5S          3.09287   0.00000  -0.01323   0.00000   0.00000
   6        6PX         0.00000  -0.01850   0.00000   0.08431   0.00000
   7        6PY         0.00000   0.00000   0.00000   0.00000   0.00000
   8        6PZ        -0.20553   0.00000  -0.22818   0.00000   0.00000
   9        7PX         0.00000   0.10391   0.00000  -0.51518   0.00000
  10        7PY         0.00000   0.00000   0.00000   0.00000   0.00000
  11        7PZ        -2.85787   0.00000   1.38103   0.00000   0.00000
  12        8PX         0.00000  -0.02862   0.00000   0.12665   0.00000
  13        8PY         0.00000   0.00000   0.00000   0.00000   0.00000
  14        8PZ        -0.98237   0.00000  -0.01305   0.00000   0.00000
  15        9D 0       -0.04067   0.00000  -0.44343   0.00000   0.00000
  16        9D+1        0.00000  -0.16610   0.00000   0.95974   0.00000
  17        9D-1        0.00000   0.00000   0.00000   0.00000   0.00000
  18        9D+2        0.28225   0.00000   0.02606   0.00000   0.00000
  19        9D-2        0.00000   0.00000   0.00000   0.00000   1.14697
  20       10D 0        0.30954   0.00000  -0.72711   0.00000   0.00000
  21       10D+1        0.00000  -0.10190   0.00000  -0.21313   0.00000
  22       10D-1        0.00000   0.00000   0.00000   0.00000   0.00000
  23       10D+2       -1.11944   0.00000  -0.13099   0.00000   0.00000
  24       10D-2        0.00000   0.00000   0.00000   0.00000  -0.50397
  25       11F 0        0.13805   0.00000   0.77552   0.00000   0.00000
  26       11F+1        0.00000   0.93865   0.00000  -0.08615   0.00000
  27       11F-1        0.00000   0.00000   0.00000   0.00000   0.00000
  28       11F+2        0.06665   0.00000  -0.44096   0.00000   0.00000
  29       11F-2        0.00000   0.00000   0.00000   0.00000  -0.24449
  30       11F+3        0.00000   0.40854   0.00000   0.62792   0.00000
  31       11F-3        0.00000   0.00000   0.00000   0.00000   0.00000
  32 2   H  1S         -0.14155   0.00000   0.28872   0.00000   0.00000
  33        2S         -3.97250   0.00000   0.45103   0.00000   0.00000
  34        3S         -0.16147   0.00000  -0.07949   0.00000   0.00000
  35        4PX         0.00000  -0.06013   0.00000   0.26018   0.11215
  36        4PY        -0.68061   0.00000   0.57973   0.00000   0.00000
  37        4PZ        -0.48828   0.00000  -0.15274   0.00000   0.00000
  38        5PX         0.00000   0.00362   0.00000   0.00769  -0.11119
  39        5PY        -1.63432   0.00000   0.20524   0.00000   0.00000
  40        5PZ        -1.19879   0.00000  -0.08837   0.00000   0.00000
  41        6D 0        0.03599   0.00000  -0.44701   0.00000   0.00000
  42        6D+1        0.00000   0.21441   0.00000   0.31588   0.08058
  43        6D-1       -0.92438   0.00000  -0.19000   0.00000   0.00000
  44        6D+2        0.60861   0.00000  -0.41863   0.00000   0.00000
  45        6D-2        0.00000  -0.26485   0.00000   0.25111   0.18684
  46 3   H  1S         -0.14155   0.00000   0.28872   0.00000   0.00000
  47        2S         -3.97250   0.00000   0.45103   0.00000   0.00000
  48        3S         -0.16147   0.00000  -0.07949   0.00000   0.00000
  49        4PX         0.00000  -0.06013   0.00000   0.26018  -0.11215
  50        4PY         0.68061   0.00000  -0.57973   0.00000   0.00000
  51        4PZ        -0.48828   0.00000  -0.15274   0.00000   0.00000
  52        5PX         0.00000   0.00362   0.00000   0.00769   0.11119
  53        5PY         1.63432   0.00000  -0.20524   0.00000   0.00000
  54        5PZ        -1.19879   0.00000  -0.08837   0.00000   0.00000
  55        6D 0        0.03599   0.00000  -0.44701   0.00000   0.00000
  56        6D+1        0.00000   0.21441   0.00000   0.31588  -0.08058
  57        6D-1        0.92438   0.00000   0.19000   0.00000   0.00000
  58        6D+2        0.60861   0.00000  -0.41863   0.00000   0.00000
  59        6D-2        0.00000   0.26485   0.00000  -0.25111   0.18684
                          51        52        53        54        55
                        (B2)--V   (B1)--V   (A1)--V   (A2)--V   (A1)--V
     Eigenvalues --     6.37334   6.39205   6.45752   6.63061   6.69787
   1 1   O  1S          0.00000   0.00000   0.00331   0.00000   0.02467
   2        2S          0.00000   0.00000   0.02010   0.00000   0.06621
   3        3S          0.00000   0.00000  -0.42664   0.00000  -0.29644
   4        4S          0.00000   0.00000   1.09125   0.00000  -0.75464
   5        5S          0.00000   0.00000   0.84205   0.00000   0.77914
   6        6PX         0.00000   0.16016   0.00000   0.00000   0.00000
   7        6PY        -0.37897   0.00000   0.00000   0.00000   0.00000
   8        6PZ         0.00000   0.00000   0.18081   0.00000   0.24325
   9        7PX         0.00000  -0.95053   0.00000   0.00000   0.00000
  10        7PY         2.31666   0.00000   0.00000   0.00000   0.00000
  11        7PZ         0.00000   0.00000  -1.09860   0.00000   0.12306
  12        8PX         0.00000  -0.15120   0.00000   0.00000   0.00000
  13        8PY         0.26080   0.00000   0.00000   0.00000   0.00000
  14        8PZ         0.00000   0.00000  -0.49307   0.00000  -0.26955
  15        9D 0        0.00000   0.00000  -1.11963   0.00000  -0.10028
  16        9D+1        0.00000  -0.68462   0.00000   0.00000   0.00000
  17        9D-1        0.08730   0.00000   0.00000   0.00000   0.00000
  18        9D+2        0.00000   0.00000  -0.13793   0.00000   1.18851
  19        9D-2        0.00000   0.00000   0.00000   0.32847   0.00000
  20       10D 0        0.00000   0.00000   1.30203   0.00000   0.04850
  21       10D+1        0.00000   1.09935   0.00000   0.00000   0.00000
  22       10D-1       -0.95542   0.00000   0.00000   0.00000   0.00000
  23       10D+2        0.00000   0.00000   0.04456   0.00000  -0.72315
  24       10D-2        0.00000   0.00000   0.00000  -1.13871   0.00000
  25       11F 0        0.00000   0.00000  -0.36314   0.00000   0.01334
  26       11F+1        0.00000  -0.45941   0.00000   0.00000   0.00000
  27       11F-1       -0.46529   0.00000   0.00000   0.00000   0.00000
  28       11F+2        0.00000   0.00000   0.30474   0.00000   0.15771
  29       11F-2        0.00000   0.00000   0.00000   1.25271   0.00000
  30       11F+3        0.00000   0.90849   0.00000   0.00000   0.00000
  31       11F-3       -1.05578   0.00000   0.00000   0.00000   0.00000
  32 2   H  1S          0.62032   0.00000  -0.18941   0.00000  -0.15322
  33        2S          1.15924   0.00000  -0.85526   0.00000   0.06248
  34        3S         -0.08121   0.00000  -0.02966   0.00000  -0.13736
  35        4PX         0.00000   0.36991   0.00000  -0.47260   0.00000
  36        4PY         0.29945   0.00000  -0.36651   0.00000   0.17843
  37        4PZ         0.59639   0.00000   0.02392   0.00000   0.11072
  38        5PX         0.00000   0.43230   0.00000  -0.34927   0.00000
  39        5PY         0.17021   0.00000  -0.42047   0.00000   0.13832
  40        5PZ         0.47764   0.00000   0.15353   0.00000   0.07116
  41        6D 0        0.51365   0.00000   0.18640   0.00000   0.00030
  42        6D+1        0.00000   0.32095   0.00000  -0.45249   0.00000
  43        6D-1        0.14534   0.00000   0.07989   0.00000   0.36690
  44        6D+2        0.16285   0.00000   0.21613   0.00000  -0.15135
  45        6D-2        0.00000   0.52300   0.00000  -0.52245   0.00000
  46 3   H  1S         -0.62032   0.00000  -0.18941   0.00000  -0.15322
  47        2S         -1.15924   0.00000  -0.85526   0.00000   0.06248
  48        3S          0.08121   0.00000  -0.02966   0.00000  -0.13736
  49        4PX         0.00000   0.36991   0.00000   0.47260   0.00000
  50        4PY         0.29945   0.00000   0.36651   0.00000  -0.17843
  51        4PZ        -0.59639   0.00000   0.02392   0.00000   0.11072
  52        5PX         0.00000   0.43230   0.00000   0.34927   0.00000
  53        5PY         0.17021   0.00000   0.42047   0.00000  -0.13832
  54        5PZ        -0.47764   0.00000   0.15353   0.00000   0.07116
  55        6D 0       -0.51365   0.00000   0.18640   0.00000   0.00030
  56        6D+1        0.00000   0.32095   0.00000   0.45249   0.00000
  57        6D-1        0.14534   0.00000  -0.07989   0.00000  -0.36690
  58        6D+2       -0.16285   0.00000   0.21613   0.00000  -0.15135
  59        6D-2        0.00000  -0.52300   0.00000  -0.52245   0.00000
                          56        57        58        59
                        (B2)--V   (B2)--V   (A1)--V   (A1)--V
     Eigenvalues --     7.21874   7.22822   7.45271  43.07930
   1 1   O  1S          0.00000   0.00000   0.00573  -1.39218
   2        2S          0.00000   0.00000   0.05529   1.70956
   3        3S          0.00000   0.00000  -1.68577  -1.57721
   4        4S          0.00000   0.00000   5.31293   1.48613
   5        5S          0.00000   0.00000   1.34956  -0.53857
   6        6PX         0.00000   0.00000   0.00000   0.00000
   7        6PY        -0.32486  -0.31435   0.00000   0.00000
   8        6PZ         0.00000   0.00000   0.17397   0.06837
   9        7PX         0.00000   0.00000   0.00000   0.00000
  10        7PY        -0.73530   2.87249   0.00000   0.00000
  11        7PZ         0.00000   0.00000  -2.27789  -0.13076
  12        8PX         0.00000   0.00000   0.00000   0.00000
  13        8PY         0.24969   0.42157   0.00000   0.00000
  14        8PZ         0.00000   0.00000  -0.42797   0.02668
  15        9D 0        0.00000   0.00000   0.12021  -0.00459
  16        9D+1        0.00000   0.00000   0.00000   0.00000
  17        9D-1        1.25627  -0.08436   0.00000   0.00000
  18        9D+2        0.00000   0.00000  -0.09041   0.03649
  19        9D-2        0.00000   0.00000   0.00000   0.00000
  20       10D 0        0.00000   0.00000  -0.38702   0.01215
  21       10D+1        0.00000   0.00000   0.00000   0.00000
  22       10D-1       -0.59706  -2.00406   0.00000   0.00000
  23       10D+2        0.00000   0.00000  -1.49692  -0.06647
  24       10D-2        0.00000   0.00000   0.00000   0.00000
  25       11F 0        0.00000   0.00000   0.84219   0.00518
  26       11F+1        0.00000   0.00000   0.00000   0.00000
  27       11F-1        0.15714   1.30923   0.00000   0.00000
  28       11F+2        0.00000   0.00000   1.21754   0.01859
  29       11F-2        0.00000   0.00000   0.00000   0.00000
  30       11F+3        0.00000   0.00000   0.00000   0.00000
  31       11F-3        0.01564  -0.33639   0.00000   0.00000
  32 2   H  1S          0.25661   1.00992  -0.93919  -0.06195
  33        2S         -0.78349   2.09478  -2.44377  -0.08337
  34        3S          0.15484  -0.07327   0.02743   0.08973
  35        4PX         0.00000   0.00000   0.00000   0.00000
  36        4PY        -0.18744   0.98817  -0.72080  -0.00035
  37        4PZ        -0.25794   0.43548  -0.91915   0.00460
  38        5PX         0.00000   0.00000   0.00000   0.00000
  39        5PY        -0.46831   0.78304  -0.74756  -0.03780
  40        5PZ        -0.28613   0.49102  -0.75648  -0.03419
  41        6D 0       -0.09402  -0.32343  -0.29250   0.00588
  42        6D+1        0.00000   0.00000   0.00000   0.00000
  43        6D-1       -0.41749   0.20126  -0.43521   0.06837
  44        6D+2        0.34661  -0.31828   0.04069  -0.03625
  45        6D-2        0.00000   0.00000   0.00000   0.00000
  46 3   H  1S         -0.25661  -1.00992  -0.93919  -0.06195
  47        2S          0.78349  -2.09478  -2.44377  -0.08337
  48        3S         -0.15484   0.07327   0.02743   0.08973
  49        4PX         0.00000   0.00000   0.00000   0.00000
  50        4PY        -0.18744   0.98817   0.72080   0.00035
  51        4PZ         0.25794  -0.43548  -0.91915   0.00460
  52        5PX         0.00000   0.00000   0.00000   0.00000
  53        5PY        -0.46831   0.78304   0.74756   0.03780
  54        5PZ         0.28613  -0.49102  -0.75648  -0.03419
  55        6D 0        0.09402   0.32343  -0.29250   0.00588
  56        6D+1        0.00000   0.00000   0.00000   0.00000
  57        6D-1       -0.41749   0.20126   0.43521  -0.06837
  58        6D+2       -0.34661   0.31828   0.04069  -0.03625
  59        6D-2        0.00000   0.00000   0.00000   0.00000
          Condensed to atoms (all electrons):
               1          2          3
     1  O    7.800382   0.333356   0.333356
     2  H    0.333356   0.458837  -0.025741
     3  H    0.333356  -0.025741   0.458837
 Mulliken charges:
               1
     1  O   -0.467095
     2  H    0.233547
     3  H    0.233547
 Sum of Mulliken charges =   0.00000
 Mulliken charges with hydrogens summed into heavy atoms:
               1
     1  O    0.000000
 Electronic spatial extent (au):  <R**2>=             19.7940
 Charge=              0.0000 electrons
 Dipole moment (field-independent basis, Debye):
    X=              0.0000    Y=             -0.0000    Z=             -2.1944  Tot=              2.1944
 Quadrupole moment (field-independent basis, Debye-Ang):
   XX=             -7.6240   YY=             -4.3409   ZZ=             -6.2918
   XY=              0.0000   XZ=             -0.0000   YZ=              0.0000
 Traceless Quadrupole moment (field-independent basis, Debye-Ang):
   XX=             -1.5385   YY=              1.7447   ZZ=             -0.2062
   XY=              0.0000   XZ=             -0.0000   YZ=              0.0000
 Octapole moment (field-independent basis, Debye-Ang**2):
  XXX=             -0.0000  YYY=             -0.0000  ZZZ=             -1.4609  XYY=              0.0000
  XXY=              0.0000  XXZ=             -0.3808  XZZ=             -0.0000  YZZ=             -0.0000
  YYZ=             -1.4676  XYZ=             -0.0000
 Hexadecapole moment (field-independent basis, Debye-Ang**3):
 XXXX=             -6.5826 YYYY=             -6.2050 ZZZZ=             -7.2968 XXXY=             -0.0000
 XXXZ=              0.0000 YYYX=             -0.0000 YYYZ=              0.0000 ZZZX=              0.0000
 ZZZY=              0.0000 XXYY=             -2.4488 XXZZ=             -2.3736 YYZZ=             -1.8773
 XXYZ=             -0.0000 YYXZ=             -0.0000 ZZXY=              0.0000
 N-N= 9.064513567260D+00 E-N=-1.990555857774D+02  KE= 7.617795022627D+01
 Symmetry A1   KE= 6.798549653582D+01
 Symmetry A2   KE= 2.976209259254D-33
 Symmetry B1   KE= 4.510811169912D+00
 Symmetry B2   KE= 3.681642520535D+00
 Orbital energies and kinetic energies (alpha):
                                 1                 2
   1         (A1)--O         -18.769649         29.114197
   2         (A1)--O          -0.925726          2.663786
   3         (B2)--O          -0.477158          1.840821
   4         (A1)--O          -0.345897          2.214766
   5         (B1)--O          -0.267295          2.255406
   6         (A1)--V           0.010827          0.874229
   7         (B2)--V           0.090318          0.976281
   8         (B2)--V           0.321212          0.962526
   9         (A1)--V           0.356249          1.518795
  10         (A1)--V           0.380674          1.343286
  11         (B1)--V           0.383059          1.583558
  12         (B2)--V           0.500239          1.666638
  13         (A1)--V           0.523868          1.350561
  14         (A1)--V           0.599505          1.143615
  15         (A2)--V           0.640104          1.108696
  16         (B1)--V           0.721915          1.209405
  17         (B2)--V           0.965957          1.396075
  18         (A1)--V           1.124534          1.988558
  19         (B2)--V           1.179856          2.016611
  20         (B2)--V           1.666986          2.568260
  21         (B1)--V           1.679156          2.529660
  22         (A2)--V           1.707157          2.578285
  23         (A1)--V           1.764026          2.792416
  24         (A1)--V           1.799823          2.866090
  25         (A1)--V           2.006351          3.991335
  26         (B2)--V           2.284969          4.781270
  27         (B1)--V           2.436389          6.823713
  28         (A1)--V           2.601736          7.213774
  29         (B1)--V           2.976997          3.737144
  30         (A1)--V           3.074770          4.522613
  31         (B2)--V           3.173641          5.605085
  32         (A1)--V           3.188217          5.812561
  33         (A2)--V           3.191087          4.060587
  34         (B2)--V           3.276519          4.236750
  35         (B2)--V           3.436409          4.536055
  36         (A1)--V           3.509075          4.420487
  37         (B1)--V           3.559762          4.580441
  38         (A2)--V           3.559783          4.440937
  39         (A2)--V           3.899400          4.679843
  40         (A1)--V           3.981037          5.167661
  41         (B1)--V           3.988823          4.870543
  42         (B2)--V           4.067236          5.198755
  43         (B2)--V           4.490314          6.008319
  44         (A1)--V           4.508434          5.870340
  45         (B2)--V           4.660199          5.934885
  46         (A1)--V           4.847011          6.630691
  47         (B1)--V           5.461804          6.929525
  48         (A1)--V           5.995830          7.836876
  49         (B1)--V           6.231354          8.887235
  50         (A2)--V           6.257449          9.387943
  51         (B2)--V           6.373342          8.067510
  52         (B1)--V           6.392053          8.305152
  53         (A1)--V           6.457516          9.338769
  54         (A2)--V           6.630605          8.163514
  55         (A1)--V           6.697874          9.895832
  56         (B2)--V           7.218744         10.396884
  57         (B2)--V           7.228223          9.230399
  58         (A1)--V           7.452713          9.435555
  59         (A1)--V          43.079297        108.450747
 Total kinetic energy from orbitals= 7.617795022627D+01
 No NMR shielding tensors so no spin-rotation constants.
 Leave Link  601 at Thu Jan 11 15:48:39 2018, MaxMem=  2097152000 cpu:         0.8
 (Enter /home/chemsoft/gaussian/g09e01/g09/l9999.exe)

 Test job not archived.
 1\1\GINC-LENOX07\FOpt\RBP86\def2TZVPP/W06\H2O1\MARTIN\11-Jan-2018\0\\#
 P BP86/def2TZVPP/W06 DenFit opt(MaxCycle=100) scf(xqc,MaxConventionalC
 ycle=500) scrf(pcm,solvent=water) EmpiricalDispersion=GD3BJ int(ultraf
 inegrid) gfinput gfoldprint iop(6/7=3) symmetry(loose)\\Water in water
  DF-BP86-D3(BJ)-PCM/def2-TZVPP\\0,1\O,-0.028477575,0.,-0.0201368067\H,
 0.021541317,0.,0.949741115\H,0.9026062707,0.,-0.296267111\\Version=ES6
 4L-G09RevE.01\State=1-A1\HF=-76.4738623\RMSD=9.630e-09\RMSF=5.895e-06\
 Dipole=0.7049169,0.,0.4984538\Quadrupole=0.3301642,-1.1438012,0.813637
 1,0.,-0.6837435,0.\PG=C02V [C2(O1),SGV(H2)]\\@


 SILVERMAN'S PARADOX - IF MURPHY'S LAW CAN GO WRONG, IT WILL.
 Job cpu time:       0 days  0 hours  2 minutes 24.4 seconds.
 File lengths (MBytes):  RWF=      9 Int=      0 D2E=      0 Chk=      2 Scr=      1
 Normal termination of Gaussian 09 at Thu Jan 11 15:48:39 2018.
