Water in water DF-BP86-D3(BJ)-PCM/def2-TZVPP                            
FOpt      RBP86                                                       def2TZVPP/W06       
Number of atoms                            I                3
Info1-9                                    I   N=           9
          21          20           0           0           0         111
           2          18         402
Full Title                                 C   N=           4
Water in water DF-BP86-D3(BJ)-PCM/def2-TZVPP    
Route                                      C   N=          17
#P BP86/def2TZVPP/W06 DenFit opt(MaxCycle=100) scf(xqc,MaxCo
nventionalCycle=500) scrf(pcm,solvent=water) EmpiricalDisper
sion=GD3BJ int(ultrafinegrid) gfinput gfoldprint iop(6/7=3) 
symmetry(loose)         
Charge                                     I                0
Multiplicity                               I                1
Number of electrons                        I               10
Number of alpha electrons                  I                5
Number of beta electrons                   I                5
Number of basis functions                  I               59
Number of independent functions            I               59
Number of point charges in /Mol/           I                0
Number of translation vectors              I                0
Atomic numbers                             I   N=           3
           8           1           1
Nuclear charges                            R   N=           3
  8.00000000E+00  1.00000000E+00  1.00000000E+00
Current cartesian coordinates              R   N=           9
 -2.46519033E-32 -1.38777878E-17  2.27069947E-01  1.18329136E-30 -1.44190313E+00
 -9.08279786E-01  1.76582205E-16  1.44190313E+00 -9.08279786E-01
Number of symbols in /Mol/                 I                0
Redundant internal dimensions              I   N=           4
           3           2           1           0
Redundant internal coordinate indices      I   N=          12
           1           2           0           0           1           3
           0           0           2           1           3           0
Redundant internal coordinates             R   N=           3
  1.83523940E+00  1.83523940E+00  1.80757544E+00
ZRed-IntVec                                I   N=           3
           0           0           0
ZRed-FPVec                                 R   N=           3
  0.00000000E+00  0.00000000E+00  0.00000000E+00
ZRed-Constraint1                           R   N=           3
  1.79523983E+00  1.79524003E+00  1.91062910E+00
ZRed-Constraint2                           R   N=           3
  0.00000000E+00  0.00000000E+00  0.00000000E+00
Force Field                                I                0
Atom Types                                 C   N=           3
                                    
Int Atom Types                             I   N=           3
           0           0           0
MM charges                                 R   N=           3
  0.00000000E+00  0.00000000E+00  0.00000000E+00
Integer atomic weights                     I   N=           3
          16           1           1
Real atomic weights                        R   N=           3
  1.59949146E+01  1.00782504E+00  1.00782504E+00
Atom fragment info                         I   N=           3
           0           0           0
Atom residue num                           I   N=           3
           0           0           0
Nuclear spins                              I   N=           3
           0           1           1
Nuclear ZEff                               R   N=           3
 -5.60000000E+00 -1.00000000E+00 -1.00000000E+00
Nuclear ZNuc                               R   N=           3
  8.00000000E+00  1.00000000E+00  1.00000000E+00
Nuclear QMom                               R   N=           3
  0.00000000E+00  0.00000000E+00  0.00000000E+00
Nuclear GFac                               R   N=           3
  0.00000000E+00  2.79284600E+00  2.79284600E+00
MicOpt                                     I   N=           3
          -1          -1          -1
Number of residues                         I                0
Number of secondary structures             I                0
SymInf integers                            I   N=          26
           2           4           1           1           1          -1
          -1           1          -1           1           1           1
          -1           1           0           0           0           0
           0           0           0           0           0           0
           0           0
RotTr to input orientation                 R   N=          12
 -9.95110057E-16  1.00000000E+00  1.26338232E-15  5.77352055E-01  1.60607459E-15
 -8.16495318E-01 -8.16495318E-01 -8.30863220E-17 -5.77352055E-01  1.31586731E-01
  7.23693287E-17  9.30462503E-02
Number of contracted shells                I               23
Number of primitive shells                 I               36
Pure/Cartesian d shells                    I                0
Pure/Cartesian f shells                    I                0
Highest angular momentum                   I                3
Largest degree of contraction              I                6
Shell types                                I   N=          23
           0           0           0           0           0           1
           1           1          -2          -2          -3           0
           0           0           1           1          -2           0
           0           0           1           1          -2
Number of primitives per shell             I   N=          23
           6           2           1           1           1           4
           1           1           1           1           1           3
           1           1           1           1           1           3
           1           1           1           1           1
Shell to atom map                          I   N=          23
           1           1           1           1           1           1
           1           1           1           1           1           2
           2           2           2           2           2           3
           3           3           3           3           3
Primitive exponents                        R   N=          36
  2.70323826E+04  4.05238714E+03  9.22327227E+02  2.61240710E+02  8.53546414E+01
  3.10350352E+01  1.22608607E+01  4.99870760E+00  1.17031082E+00  4.64747410E-01
  1.85045364E-01  6.32749548E+01  1.46270494E+01  4.45012235E+00  1.52757996E+00
  5.29351179E-01  1.74784213E-01  2.31400000E+00  6.45000000E-01  1.42800000E+00
  3.40613410E+01  5.12357460E+00  1.16466260E+00  3.27230410E-01  1.03072410E-01
  1.40700000E+00  3.88000000E-01  1.05700000E+00  3.40613410E+01  5.12357460E+00
  1.16466260E+00  3.27230410E-01  1.03072410E-01  1.40700000E+00  3.88000000E-01
  1.05700000E+00
Contraction coefficients                   R   N=          36
  5.72273352E-04  4.43532335E-03  2.30201077E-02  9.28224907E-02  2.93785000E-01
  6.74016045E-01  6.38399370E-01  3.95345871E-01  1.00000000E+00  1.00000000E+00
  1.00000000E+00  1.20183322E-02  8.30054218E-02  3.19917439E-01  7.07155429E-01
  1.00000000E+00  1.00000000E+00  1.00000000E+00  1.00000000E+00  1.00000000E+00
  2.54393072E-02  1.90085949E-01  8.52441130E-01  1.00000000E+00  1.00000000E+00
  1.00000000E+00  1.00000000E+00  1.00000000E+00  2.54393072E-02  1.90085949E-01
  8.52441130E-01  1.00000000E+00  1.00000000E+00  1.00000000E+00  1.00000000E+00
  1.00000000E+00
Coordinates of each shell                  R   N=          69
  0.00000000E+00  0.00000000E+00  2.27069947E-01  0.00000000E+00  0.00000000E+00
  2.27069947E-01  0.00000000E+00  0.00000000E+00  2.27069947E-01  0.00000000E+00
  0.00000000E+00  2.27069947E-01  0.00000000E+00  0.00000000E+00  2.27069947E-01
  0.00000000E+00  0.00000000E+00  2.27069947E-01  0.00000000E+00  0.00000000E+00
  2.27069947E-01  0.00000000E+00  0.00000000E+00  2.27069947E-01  0.00000000E+00
  0.00000000E+00  2.27069947E-01  0.00000000E+00  0.00000000E+00  2.27069947E-01
  0.00000000E+00  0.00000000E+00  2.27069947E-01  7.88860905E-31 -1.44190313E+00
 -9.08279786E-01  7.88860905E-31 -1.44190313E+00 -9.08279786E-01  7.88860905E-31
 -1.44190313E+00 -9.08279786E-01  7.88860905E-31 -1.44190313E+00 -9.08279786E-01
  7.88860905E-31 -1.44190313E+00 -9.08279786E-01  7.88860905E-31 -1.44190313E+00
 -9.08279786E-01  1.76582205E-16  1.44190313E+00 -9.08279786E-01  1.76582205E-16
  1.44190313E+00 -9.08279786E-01  1.76582205E-16  1.44190313E+00 -9.08279786E-01
  1.76582205E-16  1.44190313E+00 -9.08279786E-01  1.76582205E-16  1.44190313E+00
 -9.08279786E-01  1.76582205E-16  1.44190313E+00 -9.08279786E-01
Density Number of contracted shells        I               25
Density Number of primitive shells         I               40
Density Pure/Cartesian d shells            I                0
Density Pure/Cartesian f shells            I                0
Density Highest angular momentum           I                4
Density Largest degree of contraction      I                7
Density Shell types                        I   N=          25
           0           0           0           0           0           0
           1           1           1           1          -2          -2
          -2          -3          -4           0           0           0
           1          -2           0           0           0           1
          -2
Density Number of primitives per shell     I   N=          25
           7           1           1           1           1           1
           2           1           1           1           2           1
           1           2           1           3           1           1
           2           1           3           1           1           2
           1
Density Shell to atom map                  I   N=          25
           1           1           1           1           1           1
           1           1           1           1           1           1
           1           1           1           2           2           2
           2           2           3           3           3           3
           3
Density Primitive exponents                R   N=          40
  2.87682166E+03  1.00474430E+03  3.69757995E+02  1.42944240E+02  5.78366425E+01
  2.43864983E+01  1.06622662E+01  4.80704370E+00  2.22107700E+00  1.04477950E+00
  4.96842500E-01  2.37138400E-01  6.42613382E+01  1.63006076E+01  4.35505420E+00
  1.20195540E+00  3.35419600E-01  9.21466110E+00  2.84352510E+00  9.95575900E-01
  3.64944100E-01  2.64201150E+00  7.34561300E-01  1.39310000E+00  1.56752927E+01
  3.60635780E+00  1.20800160E+00  4.72679400E-01  2.01810000E-01  2.02813650E+00
  5.35873000E-01  2.21651240E+00  1.56752927E+01  3.60635780E+00  1.20800160E+00
  4.72679400E-01  2.01810000E-01  2.02813650E+00  5.35873000E-01  2.21651240E+00
Density Contraction coefficients           R   N=          40
  2.27059374E-03  7.77182193E-03  4.50077667E-02  1.61416987E-01  4.00248316E-01
  4.05535243E-01  1.26448388E-02 -1.00000000E+00  1.00000000E+00  1.00000000E+00
  1.00000000E+00  1.00000000E+00 -1.49399058E-01 -8.87014155E-01  1.00000000E+00
  1.00000000E+00  1.00000000E+00 -2.89209135E-01 -7.37269563E-01 -1.00000000E+00
 -1.00000000E+00  3.73723879E-01  7.08768125E-01 -1.00000000E+00  3.26115897E-02
  2.29804684E-01  7.57208324E-01  1.00000000E+00  1.00000000E+00  3.61836199E-01
  7.03930309E-01  1.00000000E+00  3.26115897E-02  2.29804684E-01  7.57208324E-01
  1.00000000E+00  1.00000000E+00  3.61836199E-01  7.03930309E-01  1.00000000E+00
Density Coordinates of each shell          R   N=          75
  0.00000000E+00  0.00000000E+00  2.27069947E-01  0.00000000E+00  0.00000000E+00
  2.27069947E-01  0.00000000E+00  0.00000000E+00  2.27069947E-01  0.00000000E+00
  0.00000000E+00  2.27069947E-01  0.00000000E+00  0.00000000E+00  2.27069947E-01
  0.00000000E+00  0.00000000E+00  2.27069947E-01  0.00000000E+00  0.00000000E+00
  2.27069947E-01  0.00000000E+00  0.00000000E+00  2.27069947E-01  0.00000000E+00
  0.00000000E+00  2.27069947E-01  0.00000000E+00  0.00000000E+00  2.27069947E-01
  0.00000000E+00  0.00000000E+00  2.27069947E-01  0.00000000E+00  0.00000000E+00
  2.27069947E-01  0.00000000E+00  0.00000000E+00  2.27069947E-01  0.00000000E+00
  0.00000000E+00  2.27069947E-01  0.00000000E+00  0.00000000E+00  2.27069947E-01
  7.88860905E-31 -1.44190313E+00 -9.08279786E-01  7.88860905E-31 -1.44190313E+00
 -9.08279786E-01  7.88860905E-31 -1.44190313E+00 -9.08279786E-01  7.88860905E-31
 -1.44190313E+00 -9.08279786E-01  7.88860905E-31 -1.44190313E+00 -9.08279786E-01
  1.76582205E-16  1.44190313E+00 -9.08279786E-01  1.76582205E-16  1.44190313E+00
 -9.08279786E-01  1.76582205E-16  1.44190313E+00 -9.08279786E-01  1.76582205E-16
  1.44190313E+00 -9.08279786E-01  1.76582205E-16  1.44190313E+00 -9.08279786E-01
Constraint Structure                       R   N=           9
  2.54185706E-24  1.38777878E-17  2.07297057E-01  0.00000000E+00 -1.46580495E+00
 -8.29188346E-01  1.79509335E-16  1.46580495E+00 -8.29188346E-01
Num ILSW                                   I              100
ILSW                                       I   N=         100
           0           0           0           0           2           0
           0           0           0           0         404          -1
           5           0           0           0           2           0
           0           0           0           0           1           0
           1           0           0           0           0           0
           0           0      100000           0          -1           0
           0           0           0           0           0           0
           0           0           0           1           0           0
           0           0           1           0           0           0
           0           0         141          41           0           0
           0           0           0           0           0           0
           0           0           0           3           0           0
           0           0           0           0           0           0
           0           0           0           0           0           0
           0           0           0           0           0           0
           0           0           0           0           0           0
           0           0           0           0
Num RLSW                                   I               41
RLSW                                       R   N=          41
  1.00000000E+00  1.00000000E+00  1.00000000E+00  1.00000000E+00  0.00000000E+00
  0.00000000E+00  0.00000000E+00  1.00000000E+00  0.00000000E+00  0.00000000E+00
  0.00000000E+00  0.00000000E+00  1.00000000E+00  0.00000000E+00  0.00000000E+00
  0.00000000E+00  0.00000000E+00  1.00000000E+00  0.00000000E+00  0.00000000E+00
  0.00000000E+00  0.00000000E+00  1.00000000E+00  0.00000000E+00  0.00000000E+00
  0.00000000E+00  0.00000000E+00  1.00000000E+00  0.00000000E+00  0.00000000E+00
  0.00000000E+00  0.00000000E+00  1.00000000E+00  0.00000000E+00  0.00000000E+00
  0.00000000E+00  0.00000000E+00  0.00000000E+00  1.00000000E+00  1.00000000E+00
  0.00000000E+00
ECP-MxAtEC                                 I           250000
ECP-MaxLECP                                I               10
ECP-MaxAtL                                 I          2250000
ECP-MxTECP                                 I         11250000
ECP-LenNCZ                                 I                0
ECP-KFirst                                 I   N=          30
           0           0           0           0           0           0
           0           0           0           0           0           0
           0           0           0           0           0           0
           0           0           0           0           0           0
           0           0           0           0           0           0
ECP-KLast                                  I   N=          30
           0           0           0           0           0           0
           0           0           0           0           0           0
           0           0           0           0           0           0
           0           0           0           0           0           0
           0           0           0           0           0           0
ECP-LMax                                   I   N=           3
           0           0           0
ECP-LPSkip                                 I   N=           3
           1           1           1
ECP-RNFroz                                 R   N=           3
  0.00000000E+00  0.00000000E+00  0.00000000E+00
ECP-NLP                                    I                0
ECP-CLP1                                   R      0.000000000000000E+00
ECP-CLP2                                   R      0.000000000000000E+00
ECP-ZLP                                    R      0.000000000000000E+00
MxBond                                     I                2
NBond                                      I   N=           3
           2           1           1
IBond                                      I   N=           6
           2           3           1           0           1           0
RBond                                      R   N=           6
  1.00000000E+00  1.00000000E+00  1.00000000E+00  0.00000000E+00  1.00000000E+00
  0.00000000E+00
Virial Ratio                               R      2.003884484520995E+00
SCF Energy                                 R     -7.647386229476108E+01
Total Energy                               R     -7.647386229476108E+01
RMS Force                                  R      5.894651678252160E-06
RMS Density                                R      9.630421715634066E-09
Job Status                                 I                1
Nuclear derivative order                   I                1
External E-field                           R   N=          35
  0.00000000E+00  0.00000000E+00  0.00000000E+00  0.00000000E+00  0.00000000E+00
  0.00000000E+00  0.00000000E+00  0.00000000E+00  0.00000000E+00  0.00000000E+00
  0.00000000E+00  0.00000000E+00  0.00000000E+00  0.00000000E+00  0.00000000E+00
  0.00000000E+00  0.00000000E+00  0.00000000E+00  0.00000000E+00  0.00000000E+00
  0.00000000E+00  0.00000000E+00  0.00000000E+00  0.00000000E+00  0.00000000E+00
  0.00000000E+00  0.00000000E+00  0.00000000E+00  0.00000000E+00  0.00000000E+00
  0.00000000E+00  0.00000000E+00  0.00000000E+00  0.00000000E+00  0.00000000E+00
IOpCl                                      I                0
IROHF                                      I                0
Alpha Orbital Energies                     R   N=          59
 -1.87696493E+01 -9.25726175E-01 -4.77157752E-01 -3.45897239E-01 -2.67294563E-01
  1.08270811E-02  9.03183846E-02  3.21212428E-01  3.56248530E-01  3.80673756E-01
  3.83059075E-01  5.00239361E-01  5.23868184E-01  5.99505285E-01  6.40103792E-01
  7.21915165E-01  9.65956752E-01  1.12453366E+00  1.17985602E+00  1.66698623E+00
  1.67915641E+00  1.70715696E+00  1.76402556E+00  1.79982315E+00  2.00635052E+00
  2.28496851E+00  2.43638890E+00  2.60173556E+00  2.97699716E+00  3.07477016E+00
  3.17364069E+00  3.18821708E+00  3.19108734E+00  3.27651889E+00  3.43640944E+00
  3.50907482E+00  3.55976198E+00  3.55978286E+00  3.89940003E+00  3.98103679E+00
  3.98882311E+00  4.06723636E+00  4.49031415E+00  4.50843376E+00  4.66019913E+00
  4.84701081E+00  5.46180399E+00  5.99582956E+00  6.23135353E+00  6.25744876E+00
  6.37334187E+00  6.39205312E+00  6.45751617E+00  6.63060508E+00  6.69787445E+00
  7.21874427E+00  7.22822290E+00  7.45271316E+00  4.30792968E+01
Alpha MO coefficients                      R   N=        3481
  4.35770131E-01  6.38423597E-01  3.62182188E-02 -2.14673201E-02  7.12339947E-03
  0.00000000E+00  0.00000000E+00 -2.00061323E-03  0.00000000E+00  0.00000000E+00
  2.08294633E-03  0.00000000E+00  0.00000000E+00 -4.56202881E-04  8.12197296E-05
  0.00000000E+00  0.00000000E+00 -4.65120036E-04  0.00000000E+00 -2.41435916E-04
  0.00000000E+00  0.00000000E+00  5.38076975E-04  0.00000000E+00  6.40502699E-05
  0.00000000E+00  0.00000000E+00  1.96926827E-05  0.00000000E+00  0.00000000E+00
  0.00000000E+00  5.21046541E-04  1.19368676E-03 -1.16180499E-03  0.00000000E+00
 -1.49535407E-04 -2.27953193E-04  0.00000000E+00  6.47413395E-04  4.82267376E-04
 -1.26064173E-04  0.00000000E+00 -7.72824507E-04  3.86345894E-04  0.00000000E+00
  5.21046541E-04  1.19368676E-03 -1.16180499E-03  0.00000000E+00  1.49535407E-04
 -2.27953193E-04  0.00000000E+00 -6.47413395E-04  4.82267376E-04 -1.26064173E-04
  0.00000000E+00  7.72824507E-04  3.86345894E-04  0.00000000E+00 -9.81820037E-02
 -2.29263669E-01  3.41959729E-01  4.09836299E-01  1.55690540E-01  0.00000000E+00
  0.00000000E+00 -8.96960687E-02  0.00000000E+00  0.00000000E+00 -6.22681125E-02
  0.00000000E+00  0.00000000E+00 -7.70413587E-03  1.44055591E-03  0.00000000E+00
  0.00000000E+00 -3.90581741E-03  0.00000000E+00  3.52422326E-03  0.00000000E+00
  0.00000000E+00 -6.15641578E-03  0.00000000E+00 -2.34713131E-04  0.00000000E+00
  0.00000000E+00  7.16101378E-04  0.00000000E+00  0.00000000E+00  0.00000000E+00
  9.44312094E-02  8.22388791E-02  5.89921731E-03  0.00000000E+00  1.23624319E-02
  8.65475791E-03  0.00000000E+00  1.22201337E-02  6.65300039E-03  2.78903595E-05
  0.00000000E+00  3.83046475E-03 -2.94623060E-03  0.00000000E+00  9.44312094E-02
  8.22388791E-02  5.89921731E-03  0.00000000E+00 -1.23624319E-02  8.65475791E-03
  0.00000000E+00 -1.22201337E-02  6.65300039E-03  2.78903595E-05  0.00000000E+00
 -3.83046475E-03 -2.94623060E-03  0.00000000E+00  0.00000000E+00  0.00000000E+00
  0.00000000E+00  0.00000000E+00  0.00000000E+00  0.00000000E+00  3.90344692E-01
  0.00000000E+00  0.00000000E+00  2.70373472E-01  0.00000000E+00  0.00000000E+00
  1.23346177E-01  0.00000000E+00  0.00000000E+00  0.00000000E+00 -1.08788405E-02
  0.00000000E+00  0.00000000E+00  0.00000000E+00  0.00000000E+00 -1.04689014E-02
  0.00000000E+00  0.00000000E+00  0.00000000E+00  0.00000000E+00 -9.16427615E-04
  0.00000000E+00  0.00000000E+00  0.00000000E+00 -1.92903110E-03 -1.48891295E-01
 -2.08976745E-01 -5.97446886E-02  0.00000000E+00 -9.88538965E-03 -1.39823449E-02
  0.00000000E+00 -1.30680081E-02 -2.06530266E-02 -2.37987632E-03  0.00000000E+00
 -5.91203708E-03  2.54794227E-03  0.00000000E+00  1.48891295E-01  2.08976745E-01
  5.97446886E-02  0.00000000E+00 -9.88538965E-03  1.39823449E-02  0.00000000E+00
 -1.30680081E-02  2.06530266E-02  2.37987632E-03  0.00000000E+00 -5.91203708E-03
 -2.54794227E-03  0.00000000E+00 -3.67093335E-02 -8.70967887E-02  1.32265957E-01
  2.01723810E-01  2.47708587E-01  0.00000000E+00  0.00000000E+00  4.16432413E-01
  0.00000000E+00  0.00000000E+00  3.05207031E-01  0.00000000E+00  0.00000000E+00
  2.25380825E-01 -5.53346381E-03  0.00000000E+00  0.00000000E+00  1.81161192E-03
  0.00000000E+00 -1.50065527E-02  0.00000000E+00  0.00000000E+00 -1.52469130E-03
  0.00000000E+00  9.70516194E-04  0.00000000E+00  0.00000000E+00 -1.52989433E-03
  0.00000000E+00  0.00000000E+00  0.00000000E+00 -8.79009126E-02 -1.41522815E-01
 -3.65541159E-02  0.00000000E+00 -1.01957884E-02  1.36922502E-03  0.00000000E+00
 -2.06251908E-02  1.29449302E-02  2.93550618E-03  0.00000000E+00 -8.48555857E-04
  3.82220294E-03  0.00000000E+00 -8.79009126E-02 -1.41522815E-01 -3.65541159E-02
  0.00000000E+00  1.01957884E-02  1.36922502E-03  0.00000000E+00  2.06251908E-02
  1.29449302E-02  2.93550618E-03  0.00000000E+00  8.48555857E-04  3.82220294E-03
  0.00000000E+00  0.00000000E+00  0.00000000E+00  0.00000000E+00  0.00000000E+00
  0.00000000E+00  4.74577744E-01  0.00000000E+00  0.00000000E+00  3.70067086E-01
  0.00000000E+00  0.00000000E+00  3.31709305E-01  0.00000000E+00  0.00000000E+00
  0.00000000E+00 -5.05218437E-03  0.00000000E+00  0.00000000E+00  0.00000000E+00
  0.00000000E+00 -1.65139421E-02  0.00000000E+00  0.00000000E+00  0.00000000E+00
  0.00000000E+00  1.32533895E-03  0.00000000E+00  0.00000000E+00  0.00000000E+00
 -3.15535364E-03  0.00000000E+00  0.00000000E+00  0.00000000E+00  0.00000000E+00
  1.14295020E-02  0.00000000E+00  0.00000000E+00  2.99579717E-02  0.00000000E+00
  0.00000000E+00  0.00000000E+00  3.29650837E-03  0.00000000E+00  0.00000000E+00
  4.82740995E-03  0.00000000E+00  0.00000000E+00  0.00000000E+00  1.14295020E-02
  0.00000000E+00  0.00000000E+00  2.99579717E-02  0.00000000E+00  0.00000000E+00
  0.00000000E+00  3.29650837E-03  0.00000000E+00  0.00000000E+00 -4.82740995E-03
 -3.78519583E-02 -9.23159390E-02  1.65820655E-01  2.08721514E-01  1.21192450E+00
  0.00000000E+00  0.00000000E+00 -1.64500631E-01  0.00000000E+00  0.00000000E+00
 -1.92509796E-01  0.00000000E+00  0.00000000E+00 -4.29266904E-01  4.32240082E-04
  0.00000000E+00  0.00000000E+00  3.51881661E-03  0.00000000E+00  1.63761787E-02
  0.00000000E+00  0.00000000E+00 -1.61415613E-02  0.00000000E+00 -1.85162470E-04
  0.00000000E+00  0.00000000E+00  1.72621778E-03  0.00000000E+00  0.00000000E+00
  0.00000000E+00 -4.61376880E-02 -2.91372134E-01 -8.90964000E-01  0.00000000E+00
  1.53893212E-02  8.24234467E-03  0.00000000E+00 -5.71254990E-02 -2.99521115E-02
 -6.05425206E-04  0.00000000E+00 -2.99433581E-03  2.01479110E-03  0.00000000E+00
 -4.61376880E-02 -2.91372134E-01 -8.90964000E-01  0.00000000E+00 -1.53893212E-02
  8.24234467E-03  0.00000000E+00  5.71254990E-02 -2.99521115E-02 -6.05425206E-04
  0.00000000E+00  2.99433581E-03  2.01479110E-03  0.00000000E+00  0.00000000E+00
  0.00000000E+00  0.00000000E+00  0.00000000E+00  0.00000000E+00  0.00000000E+00
  2.80690667E-01  0.00000000E+00  0.00000000E+00  2.53355584E-01  0.00000000E+00
  0.00000000E+00  6.91968003E-01  0.00000000E+00  0.00000000E+00  0.00000000E+00
  3.91375343E-03  0.00000000E+00  0.00000000E+00  0.00000000E+00  0.00000000E+00
 -1.09253588E-02  0.00000000E+00  0.00000000E+00  0.00000000E+00  0.00000000E+00
 -1.14106089E-03  0.00000000E+00  0.00000000E+00  0.00000000E+00 -1.31010902E-03
  5.20080462E-02  2.17906699E-01  1.50433824E+00  0.00000000E+00 -1.31803919E-02
 -1.49311121E-02  0.00000000E+00  2.80360655E-02  2.26389323E-02 -2.29790197E-03
  0.00000000E+00  3.01284616E-03 -3.34574718E-03  0.00000000E+00 -5.20080462E-02
 -2.17906699E-01 -1.50433824E+00  0.00000000E+00 -1.31803919E-02  1.49311121E-02
  0.00000000E+00  2.80360655E-02 -2.26389323E-02  2.29790197E-03  0.00000000E+00
  3.01284616E-03  3.34574718E-03  0.00000000E+00  0.00000000E+00  0.00000000E+00
  0.00000000E+00  0.00000000E+00  0.00000000E+00  0.00000000E+00  1.01747982E-01
  0.00000000E+00  0.00000000E+00  2.73752179E-01  0.00000000E+00  0.00000000E+00
  1.04979837E+00  0.00000000E+00  0.00000000E+00  0.00000000E+00  2.54717978E-02
  0.00000000E+00  0.00000000E+00  0.00000000E+00  0.00000000E+00 -8.26502641E-02
  0.00000000E+00  0.00000000E+00  0.00000000E+00  0.00000000E+00  9.79664525E-03
  0.00000000E+00  0.00000000E+00  0.00000000E+00 -1.08352255E-02  1.27285470E-01
  1.34688794E+00 -6.84288634E-01  0.00000000E+00  3.83561862E-02  1.96289971E-02
  0.00000000E+00  4.43213689E-02 -5.23821163E-03 -2.66131744E-03  0.00000000E+00
  2.33158867E-02 -1.00912749E-02  0.00000000E+00 -1.27285470E-01 -1.34688794E+00
  6.84288634E-01  0.00000000E+00  3.83561862E-02 -1.96289971E-02  0.00000000E+00
  4.43213689E-02  5.23821163E-03  2.66131744E-03  0.00000000E+00  2.33158867E-02
  1.00912749E-02  0.00000000E+00  1.04656182E-02  1.76664175E-02  1.41854872E-01
 -8.94804066E-01 -1.65022996E+00  0.00000000E+00  0.00000000E+00 -3.39151359E-01
  0.00000000E+00  0.00000000E+00 -1.93673655E-01  0.00000000E+00  0.00000000E+00
  1.82907084E+00  1.28508583E-02  0.00000000E+00  0.00000000E+00 -7.33213959E-03
  0.00000000E+00 -5.67405356E-02  0.00000000E+00  0.00000000E+00  1.41120688E-01
  0.00000000E+00 -6.66711178E-03  0.00000000E+00  0.00000000E+00 -1.87557159E-02
  0.00000000E+00  0.00000000E+00  0.00000000E+00 -4.88590820E-02  9.44835103E-01
  5.29148834E-01  0.00000000E+00  1.75907081E-02  1.85581614E-02  0.00000000E+00
  4.77580911E-01  2.52968520E-01 -4.21197623E-03  0.00000000E+00  3.63496298E-02
 -2.94655702E-02  0.00000000E+00 -4.88590820E-02  9.44835103E-01  5.29148834E-01
  0.00000000E+00 -1.75907081E-02  1.85581614E-02  0.00000000E+00 -4.77580911E-01
  2.52968520E-01 -4.21197623E-03  0.00000000E+00 -3.63496298E-02 -2.94655702E-02
  0.00000000E+00  3.34360987E-02  7.61591123E-02 -2.60771228E-02 -6.94113270E-01
  7.28402317E-02  0.00000000E+00  0.00000000E+00  1.00215375E-01  0.00000000E+00
  0.00000000E+00  1.51324109E-01  0.00000000E+00  0.00000000E+00  5.73507567E-01
 -5.02671164E-03  0.00000000E+00  0.00000000E+00 -1.58955471E-02  0.00000000E+00
  5.68351973E-03  0.00000000E+00  0.00000000E+00  8.36850876E-03  0.00000000E+00
 -7.71511881E-03  0.00000000E+00  0.00000000E+00 -1.35518354E-02  0.00000000E+00
  0.00000000E+00  0.00000000E+00  1.26773741E-01  1.27392134E+00 -7.21450942E-01
  0.00000000E+00  2.35383082E-02  1.85064403E-02  0.00000000E+00 -1.48694280E-01
  7.78110278E-02  1.06973804E-02  0.00000000E+00  1.40985770E-02 -1.08342932E-02
  0.00000000E+00  1.26773741E-01  1.27392134E+00 -7.21450942E-01  0.00000000E+00
 -2.35383082E-02  1.85064403E-02  0.00000000E+00  1.48694280E-01  7.78110278E-02
  1.06973804E-02  0.00000000E+00 -1.40985770E-02 -1.08342932E-02  0.00000000E+00
  0.00000000E+00  0.00000000E+00  0.00000000E+00  0.00000000E+00  0.00000000E+00
 -3.29978690E-01  0.00000000E+00  0.00000000E+00 -6.79264223E-01  0.00000000E+00
  0.00000000E+00  1.26377057E+00  0.00000000E+00  0.00000000E+00  0.00000000E+00
  7.29430127E-03  0.00000000E+00  0.00000000E+00  0.00000000E+00  0.00000000E+00
 -1.29528783E-02  0.00000000E+00  0.00000000E+00  0.00000000E+00  0.00000000E+00
 -2.18771962E-04  0.00000000E+00  0.00000000E+00  0.00000000E+00  8.36597997E-04
  0.00000000E+00  0.00000000E+00  0.00000000E+00  0.00000000E+00  7.49719685E-03
  0.00000000E+00  0.00000000E+00 -4.70824702E-02  0.00000000E+00  0.00000000E+00