 Entering Gaussian System, Link 0=g09
 Input=b3lypsvp.gjf
 Output=b3lypsvp.log
 Initial command:
 /home/chemsoft/gaussian/g09e01/g09/l1.exe "/scr/martin/g09job.inter1515654032/Gau-10704.inp" -scrdir="/scr/martin/g09job.inter1515654032/"
 Entering Link 1 = /home/chemsoft/gaussian/g09e01/g09/l1.exe PID=     10705.
  
 Copyright (c) 1988,1990,1992,1993,1995,1998,2003,2009,2015,
            Gaussian, Inc.  All Rights Reserved.
  
 This is part of the Gaussian(R) 09 program.  It is based on
 the Gaussian(R) 03 system (copyright 2003, Gaussian, Inc.),
 the Gaussian(R) 98 system (copyright 1998, Gaussian, Inc.),
 the Gaussian(R) 94 system (copyright 1995, Gaussian, Inc.),
 the Gaussian 92(TM) system (copyright 1992, Gaussian, Inc.),
 the Gaussian 90(TM) system (copyright 1990, Gaussian, Inc.),
 the Gaussian 88(TM) system (copyright 1988, Gaussian, Inc.),
 the Gaussian 86(TM) system (copyright 1986, Carnegie Mellon
 University), and the Gaussian 82(TM) system (copyright 1983,
 Carnegie Mellon University). Gaussian is a federally registered
 trademark of Gaussian, Inc.
  
 This software contains proprietary and confidential information,
 including trade secrets, belonging to Gaussian, Inc.
  
 This software is provided under written license and may be
 used, copied, transmitted, or stored only in accord with that
 written license.
  
 The following legend is applicable only to US Government
 contracts under FAR:
  
                    RESTRICTED RIGHTS LEGEND
  
 Use, reproduction and disclosure by the US Government is
 subject to restrictions as set forth in subparagraphs (a)
 and (c) of the Commercial Computer Software - Restricted
 Rights clause in FAR 52.227-19.
  
 Gaussian, Inc.
 340 Quinnipiac St., Bldg. 40, Wallingford CT 06492
  
  
 ---------------------------------------------------------------
 Warning -- This program may not be used in any manner that
 competes with the business of Gaussian, Inc. or will provide
 assistance to any competitor of Gaussian, Inc.  The licensee
 of this program is prohibited from giving any competitor of
 Gaussian, Inc. access to this program.  By using this program,
 the user acknowledges that Gaussian, Inc. is engaged in the
 business of creating and licensing software in the field of
 computational chemistry and represents and warrants to the
 licensee that it is not a competitor of Gaussian, Inc. and that
 it will not use this program in any manner prohibited above.
 ---------------------------------------------------------------
  

 Cite this work as:
 Gaussian 09, Revision E.01,
 M. J. Frisch, G. W. Trucks, H. B. Schlegel, G. E. Scuseria, 
 M. A. Robb, J. R. Cheeseman, G. Scalmani, V. Barone, B. Mennucci, 
 G. A. Petersson, H. Nakatsuji, M. Caricato, X. Li, H. P. Hratchian, 
 A. F. Izmaylov, J. Bloino, G. Zheng, J. L. Sonnenberg, M. Hada, 
 M. Ehara, K. Toyota, R. Fukuda, J. Hasegawa, M. Ishida, T. Nakajima, 
 Y. Honda, O. Kitao, H. Nakai, T. Vreven, J. A. Montgomery, Jr., 
 J. E. Peralta, F. Ogliaro, M. Bearpark, J. J. Heyd, E. Brothers, 
 K. N. Kudin, V. N. Staroverov, T. Keith, R. Kobayashi, J. Normand, 
 K. Raghavachari, A. Rendell, J. C. Burant, S. S. Iyengar, J. Tomasi, 
 M. Cossi, N. Rega, J. M. Millam, M. Klene, J. E. Knox, J. B. Cross, 
 V. Bakken, C. Adamo, J. Jaramillo, R. Gomperts, R. E. Stratmann, 
 O. Yazyev, A. J. Austin, R. Cammi, C. Pomelli, J. W. Ochterski, 
 R. L. Martin, K. Morokuma, V. G. Zakrzewski, G. A. Voth, 
 P. Salvador, J. J. Dannenberg, S. Dapprich, A. D. Daniels, 
 O. Farkas, J. B. Foresman, J. V. Ortiz, J. Cioslowski, 
 and D. J. Fox, Gaussian, Inc., Wallingford CT, 2013.
 
 ******************************************
 Gaussian 09:  ES64L-G09RevE.01 30-Nov-2015
                11-Jan-2018 
 ******************************************
 %chk=b3lypsvp.chk
 %nproc=4
 Will use up to    4 processors via shared memory.
 %mem=16000MB
 ----------------------------------------------------------------------
 #P B3LYP/def2SVP opt(MaxCycle=100) scf(xqc,MaxConventionalCycle=500) i
 nt(ultrafinegrid) gfinput gfoldprint iop(6/7=3) symmetry(loose)
 ----------------------------------------------------------------------
 1/6=100,14=-1,18=20,19=15,26=4,38=1/1,3;
 2/9=110,12=2,17=4,18=3,40=1/2;
 3/5=43,7=101,11=2,16=1,24=11,25=1,30=1,71=1,74=-5,75=-5/1,2,3;
 4//1;
 5/5=2,8=3,13=1,38=5,85=500/2,8;
 6/7=3,8=2,9=2,10=2,28=1/1;
 7//1,2,3,16;
 1/6=100,14=-1,18=20,19=15,26=4/3(2);
 2/9=110/2;
 99//99;
 2/9=110/2;
 3/5=43,7=101,11=2,16=1,25=1,30=1,71=1,74=-5,75=-5/1,2,3;
 4/5=5,16=3,69=1/1;
 5/5=2,8=3,13=1,38=5,85=500/2,8;
 7//1,2,3,16;
 1/6=100,14=-1,18=20,19=15,26=4/3(-5);
 2/9=110/2;
 6/7=3,8=2,9=2,10=2,19=2,28=1/1;
 99/9=1/99;
 Leave Link    1 at Thu Jan 11 16:00:32 2018, MaxMem=  2097152000 cpu:         0.4
 (Enter /home/chemsoft/gaussian/g09e01/g09/l101.exe)
 --------------------
 Water B3LYP/def2-SVP
 --------------------
 Symbolic Z-matrix:
 Charge =  0 Multiplicity = 1
 O                     0.        0.        0. 
 H                     0.        0.        0.95 
 H                     0.89567   0.       -0.31666 
 
 NAtoms=      3 NQM=        3 NQMF=       0 NMMI=      0 NMMIF=      0
                NMic=       0 NMicF=      0.
                    Isotopes and Nuclear Properties:
 (Nuclear quadrupole moments (NQMom) in fm**2, nuclear magnetic moments (NMagM)
  in nuclear magnetons)

  Atom         1           2           3
 IAtWgt=          16           1           1
 AtmWgt=  15.9949146   1.0078250   1.0078250
 NucSpn=           0           1           1
 AtZEff=   0.0000000   0.0000000   0.0000000
 NQMom=    0.0000000   0.0000000   0.0000000
 NMagM=    0.0000000   2.7928460   2.7928460
 AtZNuc=   8.0000000   1.0000000   1.0000000
 Leave Link  101 at Thu Jan 11 16:00:32 2018, MaxMem=  2097152000 cpu:         2.0
 (Enter /home/chemsoft/gaussian/g09e01/g09/l103.exe)

 GradGradGradGradGradGradGradGradGradGradGradGradGradGradGradGradGradGrad
 Berny optimization.
 Initialization pass.
                           ----------------------------
                           !    Initial Parameters    !
                           ! (Angstroms and Degrees)  !
 --------------------------                            --------------------------
 ! Name  Definition              Value          Derivative Info.                !
 --------------------------------------------------------------------------------
 ! R1    R(1,2)                  0.95           estimate D2E/DX2                !
 ! R2    R(1,3)                  0.95           estimate D2E/DX2                !
 ! A1    A(2,1,3)              109.471          estimate D2E/DX2                !
 --------------------------------------------------------------------------------
 Trust Radius=3.00D-01 FncErr=1.00D-07 GrdErr=1.00D-06
 Number of steps in this run=    100 maximum allowed number of steps=    100.
 GradGradGradGradGradGradGradGradGradGradGradGradGradGradGradGradGradGrad

 Leave Link  103 at Thu Jan 11 16:00:32 2018, MaxMem=  2097152000 cpu:         0.1
 (Enter /home/chemsoft/gaussian/g09e01/g09/l202.exe)
                          Input orientation:                          
 ---------------------------------------------------------------------
 Center     Atomic      Atomic             Coordinates (Angstroms)
 Number     Number       Type             X           Y           Z
 ---------------------------------------------------------------------
      1          8           0        0.000000    0.000000    0.000000
      2          1           0        0.000000    0.000000    0.950000
      3          1           0        0.895670    0.000000   -0.316663
 ---------------------------------------------------------------------
                    Distance matrix (angstroms):
                    1          2          3
     1  O    0.000000
     2  H    0.950000   0.000000
     3  H    0.950000   1.551341   0.000000
 Stoichiometry    H2O
 Framework group  C2V[C2(O),SGV(H2)]
 Deg. of freedom     2
 Full point group                 C2V     NOp   4
 Largest Abelian subgroup         C2V     NOp   4
 Largest concise Abelian subgroup C2      NOp   2
                         Standard orientation:                         
 ---------------------------------------------------------------------
 Center     Atomic      Atomic             Coordinates (Angstroms)
 Number     Number       Type             X           Y           Z
 ---------------------------------------------------------------------
      1          8           0        0.000000    0.000000    0.109697
      2          1           0       -0.000000   -0.775671   -0.438788
      3          1           0        0.000000    0.775671   -0.438788
 ---------------------------------------------------------------------
 Rotational constants (GHZ):    938.4665947    416.7229553    288.5799797
 Leave Link  202 at Thu Jan 11 16:00:32 2018, MaxMem=  2097152000 cpu:         0.0
 (Enter /home/chemsoft/gaussian/g09e01/g09/l301.exe)
 Standard basis: def2SVP (5D, 7F)
 ======================================================================================================
                                       Pseudopotential Parameters
 ======================================================================================================
  Center     Atomic      Valence      Angular      Power
  Number     Number     Electrons     Momentum     of R      Exponent        Coefficient   SO-Coeffient
 ======================================================================================================
    1          8
                                   No pseudopotential on this center.
    2          1
                                   No pseudopotential on this center.
    3          1
                                   No pseudopotential on this center.
 ======================================================================================================
 Ernie: Thresh=  0.10000D-02 Tol=  0.10000D-05 Strict=F.
 AO basis set in the form of general basis input (Overlap normalization):
      1 0
 S   5 1.00       0.000000000000
      0.2266176779D+04 -0.5389350392D-02
      0.3408701019D+03 -0.4023472139D-01
      0.7736313517D+02 -0.1800818421D+00
      0.2147964494D+02 -0.4682885766D+00
      0.6658943312D+01 -0.4469261716D+00
 S   1 1.00       0.000000000000
      0.8097597567D+00  0.1000000000D+01
 S   1 1.00       0.000000000000
      0.2553077223D+00  0.1000000000D+01
 P   3 1.00       0.000000000000
      0.1772150432D+02  0.6263024876D-01
      0.3863550544D+01  0.3333113848D+00
      0.1048092088D+01  0.7414863831D+00
 P   1 1.00       0.000000000000
      0.2764154441D+00  0.1000000000D+01
 D   1 1.00       0.000000000000
      0.1200000000D+01  0.1000000000D+01
 ****
      2 0
 S   3 1.00       0.000000000000
      0.1301070100D+02  0.3348548481D-01
      0.1962257200D+01  0.2347218709D+00
      0.4445379600D+00  0.8137702853D+00
 S   1 1.00       0.000000000000
      0.1219496200D+00  0.1000000000D+01
 P   1 1.00       0.000000000000
      0.8000000000D+00  0.1000000000D+01
 ****
      3 0
 S   3 1.00       0.000000000000
      0.1301070100D+02  0.3348548481D-01
      0.1962257200D+01  0.2347218709D+00
      0.4445379600D+00  0.8137702853D+00
 S   1 1.00       0.000000000000
      0.1219496200D+00  0.1000000000D+01
 P   1 1.00       0.000000000000
      0.8000000000D+00  0.1000000000D+01
 ****

 ***********************************************************************************************************************************
 *             ATOMIC CENTER             *        ATOMIC ORBITAL       *                     GAUSSIAN FUNCTIONS                    *
 ***********************************************************************************************************************************
 *                                       * FUNCTION    SHELL    SCALE  *                                                           *
 *    ATOM   X-COORD  Y-COORD  Z-COORD   *  NUMBER     TYPE     FACTOR *  EXPONENT    S-COEF      P-COEF      D-COEF      F-COEF   *
 ***********************************************************************************************************************************
 *     O      0.00000  0.00000  0.20730                                                                                            *
+                                                1   S           1.00                                                               
+                                                                      0.226618D+04-.126159D+010.000000D+000.000000D+000.000000D+00 
 *                                                                     0.340870D+03-.227485D+010.000000D+000.000000D+000.000000D+00*
 *                                                                     0.773631D+02-.334796D+010.000000D+000.000000D+000.000000D+00*
 *                                                                     0.214796D+02-.333000D+010.000000D+000.000000D+000.000000D+00*
 *                                                                     0.665894D+01-.132038D+010.000000D+000.000000D+000.000000D+00*
 *                                               2   S           1.00                                                              *
+                                                                      0.809760D+000.608383D+000.000000D+000.000000D+000.000000D+00 
 *                                               3   S           1.00                                                              *
+                                                                      0.255308D+000.255981D+000.000000D+000.000000D+000.000000D+00 
 *                                           4-  6   P           1.00                                                              *
+                                                                      0.177215D+020.000000D+000.324601D+010.000000D+000.000000D+00 
 *                                                                     0.386355D+010.000000D+000.257350D+010.000000D+000.000000D+00*
 *                                                                     0.104809D+010.000000D+000.112084D+010.000000D+000.000000D+00*
 *                                           7-  9   P           1.00                                                              *
+                                                                      0.276415D+000.000000D+000.285689D+000.000000D+000.000000D+00 
 *                                          10- 14   D           1.00                                                              *
+                                                                      0.120000D+010.000000D+000.000000D+000.226452D+010.000000D+00 
 *---------------------------------------------------------------------------------------------------------------------------------*
 *     H      0.00000 -1.46580 -0.82919                                                                                            *
+                                               15   S           1.00                                                               
+                                                                      0.130107D+020.163490D+000.000000D+000.000000D+000.000000D+00 
 *                                                                     0.196226D+010.277352D+000.000000D+000.000000D+000.000000D+00*
 *                                                                     0.444538D+000.315750D+000.000000D+000.000000D+000.000000D+00*
 *                                              16   S           1.00                                                              *
+                                                                      0.121950D+000.147077D+000.000000D+000.000000D+000.000000D+00 
 *                                          17- 19   P           1.00                                                              *
+                                                                      0.800000D+000.000000D+000.107846D+010.000000D+000.000000D+00 
 *---------------------------------------------------------------------------------------------------------------------------------*
 *     H      0.00000  1.46580 -0.82919                                                                                            *
+                                               20   S           1.00                                                               
+                                                                      0.130107D+020.163490D+000.000000D+000.000000D+000.000000D+00 
 *                                                                     0.196226D+010.277352D+000.000000D+000.000000D+000.000000D+00*
 *                                                                     0.444538D+000.315750D+000.000000D+000.000000D+000.000000D+00*
 *                                              21   S           1.00                                                              *
+                                                                      0.121950D+000.147077D+000.000000D+000.000000D+000.000000D+00 
 *                                          22- 24   P           1.00                                                              *
+                                                                      0.800000D+000.000000D+000.107846D+010.000000D+000.000000D+00 
 ***********************************************************************************************************************************
 There are    12 symmetry adapted cartesian basis functions of A1  symmetry.
 There are     2 symmetry adapted cartesian basis functions of A2  symmetry.
 There are     4 symmetry adapted cartesian basis functions of B1  symmetry.
 There are     7 symmetry adapted cartesian basis functions of B2  symmetry.
 There are    11 symmetry adapted basis functions of A1  symmetry.
 There are     2 symmetry adapted basis functions of A2  symmetry.
 There are     4 symmetry adapted basis functions of B1  symmetry.
 There are     7 symmetry adapted basis functions of B2  symmetry.
    24 basis functions,    39 primitive gaussians,    25 cartesian basis functions
     5 alpha electrons        5 beta electrons
       nuclear repulsion energy         9.2535675849 Hartrees.
 IExCor=  402 DFT=T Ex+Corr=B3LYP ExCW=0 ScaHFX=  0.200000
 ScaDFX=  0.800000  0.720000  1.000000  0.810000 ScalE2=  1.000000  1.000000
 IRadAn=      5 IRanWt=     -1 IRanGd=            0 ICorTp=0 IEmpDi=  4
 NAtoms=    3 NActive=    3 NUniq=    2 SFac= 2.25D+00 NAtFMM=   60 NAOKFM=F Big=F
 Integral buffers will be    131072 words long.
 Raffenetti 2 integral format.
 Two-electron integral symmetry is turned on.
 Leave Link  301 at Thu Jan 11 16:00:33 2018, MaxMem=  2097152000 cpu:         0.5
 (Enter /home/chemsoft/gaussian/g09e01/g09/l302.exe)
 NPDir=0 NMtPBC=     1 NCelOv=     1 NCel=       1 NClECP=     1 NCelD=      1
         NCelK=      1 NCelE2=     1 NClLst=     1 CellRange=     0.0.
 One-electron integrals computed using PRISM.
 One-electron integral symmetry used in STVInt
   4 Symmetry operations used in ECPInt.
 ECPInt:  NShTT=      78 NPrTT=     272 LenC2=      79 LenP2D=     271.
 LDataN:  DoStor=T MaxTD1= 4 Len=   56
 NBasis=    24 RedAO= T EigKep=  5.99D-02  NBF=    11     2     4     7
 NBsUse=    24 1.00D-06 EigRej= -1.00D+00 NBFU=    11     2     4     7
 Precomputing XC quadrature grid using
 IXCGrd= 4 IRadAn=           5 IRanWt=          -1 IRanGd=           0 AccXCQ= 0.00D+00.
 Generated NRdTot=       0 NPtTot=           0 NUsed=           0 NTot=          32
 NSgBfM=    25    25    25    25    25 MxSgAt=     3 MxSgA2=     3.
 Leave Link  302 at Thu Jan 11 16:00:33 2018, MaxMem=  2097152000 cpu:         0.9
 (Enter /home/chemsoft/gaussian/g09e01/g09/l303.exe)
 DipDrv:  MaxL=1.
 Leave Link  303 at Thu Jan 11 16:00:33 2018, MaxMem=  2097152000 cpu:         0.2
 (Enter /home/chemsoft/gaussian/g09e01/g09/l401.exe)
 ExpMin= 1.22D-01 ExpMax= 2.27D+03 ExpMxC= 3.41D+02 IAcc=3 IRadAn=         5 AccDes= 0.00D+00
 Harris functional with IExCor=  402 and IRadAn=       5 diagonalized for initial guess.
 HarFok:  IExCor=  402 AccDes= 0.00D+00 IRadAn=         5 IDoV= 1 UseB2=F ITyADJ=14
 ICtDFT=  3500011 ScaDFX=  1.000000  1.000000  1.000000  1.000000
 FoFCou: FMM=F IPFlag=           0 FMFlag=      100000 FMFlg1=           0
         NFxFlg=           0 DoJE=T BraDBF=F KetDBF=T FulRan=T
         wScrn=  0.000000 ICntrl=     500 IOpCl=  0 I1Cent=   200000004 NGrid=           0
         NMat0=    1 NMatS0=      1 NMatT0=    0 NMatD0=    1 NMtDS0=    0 NMtDT0=    0
 Petite list used in FoFCou.
 Harris En= -76.3970717547981    
 JPrj=0 DoOrth=F DoCkMO=F.
 Initial guess orbital symmetries:
       Occupied  (A1) (A1) (B2) (A1) (B1)
       Virtual   (A1) (B2) (B2) (A1) (A1) (B1) (B2) (A1) (A2) (A1)
                 (B1) (B2) (B2) (A1) (B1) (A2) (A1) (A1) (B2)
 The electronic state of the initial guess is 1-A1.
 Leave Link  401 at Thu Jan 11 16:00:33 2018, MaxMem=  2097152000 cpu:         0.8
 (Enter /home/chemsoft/gaussian/g09e01/g09/l502.exe)
 Closed shell SCF:
 Using DIIS extrapolation, IDIIS=  1040.
 Integral symmetry usage will be decided dynamically.
 Keep R1 ints in memory in symmetry-blocked form, NReq=1164839.
 IVT=      256315 IEndB=      256315 NGot=  2097152000 MDV=  2096881987
 LenX=  2096881987 LenY=  2096880921
 Requested convergence on RMS density matrix=1.00D-08 within 500 cycles.
 Requested convergence on MAX density matrix=1.00D-06.
 Requested convergence on             energy=1.00D-06.
 No special actions if energy rises.
 FoFCou: FMM=F IPFlag=           0 FMFlag=           0 FMFlg1=           0
         NFxFlg=           0 DoJE=F BraDBF=F KetDBF=F FulRan=T
         wScrn=  0.000000 ICntrl=     600 IOpCl=  0 I1Cent=           0 NGrid=           0
         NMat0=    1 NMatS0=    300 NMatT0=    0 NMatD0=    1 NMtDS0=    0 NMtDT0=    0
 Petite list used in FoFCou.
 Integral accuracy reduced to 1.0D-05 until final iterations.

 Cycle   1  Pass 0  IDiag  1:
 E= -76.2784361971793    
 DIIS: error= 7.92D-02 at cycle   1 NSaved=   1.
 NSaved= 1 IEnMin= 1 EnMin= -76.2784361971793     IErMin= 1 ErrMin= 7.92D-02
 ErrMax= 7.92D-02  0.00D+00 EMaxC= 1.00D-01 BMatC= 1.07D-01 BMatP= 1.07D-01
 IDIUse=3 WtCom= 2.08D-01 WtEn= 7.92D-01
 Coeff-Com:  0.100D+01
 Coeff-En:   0.100D+01
 Coeff:      0.100D+01
 Gap=     0.193 Goal=   None    Shift=    0.000
 GapD=    0.193 DampG=1.000 DampE=0.500 DampFc=0.5000 IDamp=-1.
 Damping current iteration by 5.00D-01
 RMSDP=2.05D-02 MaxDP=1.67D-01              OVMax= 1.96D-01

 Cycle   2  Pass 0  IDiag  1:
 E= -76.3066171230042     Delta-E=       -0.028180925825 Rises=F Damp=T
 DIIS: error= 1.72D-02 at cycle   2 NSaved=   2.
 NSaved= 2 IEnMin= 2 EnMin= -76.3066171230042     IErMin= 2 ErrMin= 1.72D-02
 ErrMax= 1.72D-02  0.00D+00 EMaxC= 1.00D-01 BMatC= 5.03D-03 BMatP= 1.07D-01
 IDIUse=3 WtCom= 8.28D-01 WtEn= 1.72D-01
 Coeff-Com:  0.167D+00 0.833D+00
 Coeff-En:   0.282D+00 0.718D+00
 Coeff:      0.187D+00 0.813D+00
 Gap=     0.329 Goal=   None    Shift=    0.000
 RMSDP=2.30D-03 MaxDP=2.77D-02 DE=-2.82D-02 OVMax= 1.07D-01

 Cycle   3  Pass 0  IDiag  1:
 E= -76.3569464622407     Delta-E=       -0.050329339236 Rises=F Damp=F
 DIIS: error= 2.22D-03 at cycle   3 NSaved=   3.
 NSaved= 3 IEnMin= 3 EnMin= -76.3569464622407     IErMin= 3 ErrMin= 2.22D-03
 ErrMax= 2.22D-03  0.00D+00 EMaxC= 1.00D-01 BMatC= 1.16D-04 BMatP= 5.03D-03
 IDIUse=3 WtCom= 9.78D-01 WtEn= 2.22D-02
 Coeff-Com:  0.339D-01 0.290D-01 0.937D+00
 Coeff-En:   0.000D+00 0.000D+00 0.100D+01
 Coeff:      0.331D-01 0.283D-01 0.939D+00
 Gap=     0.340 Goal=   None    Shift=    0.000
 RMSDP=2.85D-04 MaxDP=2.38D-03 DE=-5.03D-02 OVMax= 2.32D-03

 Cycle   4  Pass 0  IDiag  1:
 E= -76.3570230402952     Delta-E=       -0.000076578054 Rises=F Damp=F
 DIIS: error= 3.01D-04 at cycle   4 NSaved=   4.
 NSaved= 4 IEnMin= 4 EnMin= -76.3570230402952     IErMin= 4 ErrMin= 3.01D-04
 ErrMax= 3.01D-04  0.00D+00 EMaxC= 1.00D-01 BMatC= 1.89D-06 BMatP= 1.16D-04
 IDIUse=3 WtCom= 9.97D-01 WtEn= 3.01D-03
 Coeff-Com:  0.394D-02-0.154D-01 0.193D+00 0.819D+00
 Coeff-En:   0.000D+00 0.000D+00 0.000D+00 0.100D+01
 Coeff:      0.393D-02-0.153D-01 0.192D+00 0.819D+00
 Gap=     0.340 Goal=   None    Shift=    0.000
 RMSDP=2.53D-05 MaxDP=1.94D-04 DE=-7.66D-05 OVMax= 2.32D-04

 Cycle   5  Pass 0  IDiag  1:
 E= -76.3570241991833     Delta-E=       -0.000001158888 Rises=F Damp=F
 DIIS: error= 4.45D-05 at cycle   5 NSaved=   5.
 NSaved= 5 IEnMin= 5 EnMin= -76.3570241991833     IErMin= 5 ErrMin= 4.45D-05
 ErrMax= 4.45D-05  0.00D+00 EMaxC= 1.00D-01 BMatC= 2.87D-08 BMatP= 1.89D-06
 IDIUse=1 WtCom= 1.00D+00 WtEn= 0.00D+00
 Coeff-Com:  0.425D-03-0.410D-03 0.322D-03-0.137D-01 0.101D+01
 Coeff:      0.425D-03-0.410D-03 0.322D-03-0.137D-01 0.101D+01
 Gap=     0.341 Goal=   None    Shift=    0.000
 RMSDP=4.09D-06 MaxDP=4.43D-05 DE=-1.16D-06 OVMax= 3.77D-05

 Initial convergence to 1.0D-05 achieved.  Increase integral accuracy.
 Cycle   6  Pass 1  IDiag  1:
 E= -76.3570247837479     Delta-E=       -0.000000584565 Rises=F Damp=F
 DIIS: error= 2.90D-07 at cycle   1 NSaved=   1.
 NSaved= 1 IEnMin= 1 EnMin= -76.3570247837479     IErMin= 1 ErrMin= 2.90D-07
 ErrMax= 2.90D-07  0.00D+00 EMaxC= 1.00D-01 BMatC= 2.44D-12 BMatP= 2.44D-12
 IDIUse=1 WtCom= 1.00D+00 WtEn= 0.00D+00
 Coeff-Com:  0.100D+01
 Coeff:      0.100D+01
 Gap=     0.341 Goal=   None    Shift=    0.000
 RMSDP=4.09D-06 MaxDP=4.43D-05 DE=-5.85D-07 OVMax= 8.98D-07

 Cycle   7  Pass 1  IDiag  1:
 E= -76.3570247837506     Delta-E=       -0.000000000003 Rises=F Damp=F
 DIIS: error= 5.56D-08 at cycle   2 NSaved=   2.
 NSaved= 2 IEnMin= 2 EnMin= -76.3570247837506     IErMin= 2 ErrMin= 5.56D-08
 ErrMax= 5.56D-08  0.00D+00 EMaxC= 1.00D-01 BMatC= 6.56D-14 BMatP= 2.44D-12
 IDIUse=1 WtCom= 1.00D+00 WtEn= 0.00D+00
 Coeff-Com: -0.110D-01 0.101D+01
 Coeff:     -0.110D-01 0.101D+01
 Gap=     0.341 Goal=   None    Shift=    0.000
 RMSDP=1.27D-08 MaxDP=1.30D-07 DE=-2.77D-12 OVMax= 1.20D-07

 Cycle   8  Pass 1  IDiag  1:
 E= -76.3570247837506     Delta-E=        0.000000000000 Rises=F Damp=F
 DIIS: error= 6.92D-08 at cycle   3 NSaved=   3.
 NSaved= 3 IEnMin= 2 EnMin= -76.3570247837506     IErMin= 2 ErrMin= 5.56D-08
 ErrMax= 6.92D-08  0.00D+00 EMaxC= 1.00D-01 BMatC= 8.47D-14 BMatP= 6.56D-14
 IDIUse=1 WtCom= 1.00D+00 WtEn= 0.00D+00
 Coeff-Com: -0.275D-01 0.554D+00 0.474D+00
 Coeff:     -0.275D-01 0.554D+00 0.474D+00
 Gap=     0.341 Goal=   None    Shift=    0.000
 RMSDP=8.17D-09 MaxDP=6.70D-08 DE= 2.84D-14 OVMax= 7.81D-08

 SCF Done:  E(RB3LYP) =  -76.3570247838     A.U. after    8 cycles
            NFock=  8  Conv=0.82D-08     -V/T= 2.0064
 KE= 7.587201455549D+01 PE=-1.991138742278D+02 EE= 3.763126730359D+01
 Leave Link  502 at Thu Jan 11 16:00:34 2018, MaxMem=  2097152000 cpu:         1.6
 (Enter /home/chemsoft/gaussian/g09e01/g09/l508.exe)
 QCSCF skips out because SCF is already converged.
 Leave Link  508 at Thu Jan 11 16:00:34 2018, MaxMem=  2097152000 cpu:         0.0
 (Enter /home/chemsoft/gaussian/g09e01/g09/l601.exe)
 Copying SCF densities to generalized density rwf, IOpCl= 0 IROHF=0.

 **********************************************************************

            Population analysis using the SCF density.

 **********************************************************************

 Orbital symmetries:
       Occupied  (A1) (A1) (B2) (A1) (B1)
       Virtual   (A1) (B2) (B2) (A1) (A1) (B1) (B2) (A1) (A2) (A1)
                 (B1) (B2) (B2) (A1) (B1) (A2) (A1) (A1) (B2)
 The electronic state is 1-A1.
 Alpha  occ. eigenvalues --  -19.11394  -0.98152  -0.52859  -0.35657  -0.29090
 Alpha virt. eigenvalues --    0.04962   0.12831   0.58658   0.61210   0.91403
 Alpha virt. eigenvalues --    0.92206   1.00414   1.08510   1.33228   1.46983
 Alpha virt. eigenvalues --    1.57799   1.76410   2.25533   2.27590   2.94122
 Alpha virt. eigenvalues --    3.03967   3.16952   3.56082   3.79714
     Molecular Orbital Coefficients:
                           1         2         3         4         5
                        (A1)--O   (A1)--O   (B2)--O   (A1)--O   (B1)--O
     Eigenvalues --   -19.11394  -0.98152  -0.52859  -0.35657  -0.29090
   1 1   O  1S          0.98874   0.27702   0.00000   0.10589   0.00000
   2        2S         -0.03997   0.55013   0.00000   0.20980   0.00000
   3        3S          0.01377   0.25530   0.00000   0.35363   0.00000
   4        4PX         0.00000   0.00000   0.00000   0.00000   0.63694
   5        4PY         0.00000   0.00000   0.50367   0.00000   0.00000
   6        4PZ         0.00313  -0.11745   0.00000   0.55599   0.00000
   7        5PX         0.00000   0.00000   0.00000   0.00000   0.49094
   8        5PY         0.00000   0.00000   0.18908   0.00000   0.00000
   9        5PZ         0.00010  -0.00028   0.00000   0.35984   0.00000
  10        6D 0        0.00001   0.00194   0.00000  -0.01842   0.00000
  11        6D+1        0.00000   0.00000   0.00000   0.00000  -0.01920
  12        6D-1        0.00000   0.00000  -0.02288   0.00000   0.00000
  13        6D+2        0.00155  -0.00618   0.00000   0.00141   0.00000
  14        6D-2        0.00000   0.00000   0.00000   0.00000   0.00000
  15 2   H  1S          0.00284   0.20628  -0.33454  -0.18871   0.00000
  16        2S         -0.00241   0.01428  -0.09966  -0.06212   0.00000
  17        3PX         0.00000   0.00000   0.00000   0.00000   0.03042
  18        3PY         0.00286   0.03261  -0.01591  -0.02312   0.00000
  19        3PZ         0.00206   0.01345  -0.02546   0.01572   0.00000
  20 3   H  1S          0.00284   0.20628   0.33454  -0.18871   0.00000
  21        2S         -0.00241   0.01428   0.09966  -0.06212   0.00000
  22        3PX         0.00000   0.00000   0.00000   0.00000   0.03042
  23        3PY        -0.00286  -0.03261  -0.01591   0.02312   0.00000
  24        3PZ         0.00206   0.01345   0.02546   0.01572   0.00000
                           6         7         8         9        10
                        (A1)--V   (B2)--V   (B2)--V   (A1)--V   (A1)--V
     Eigenvalues --     0.04962   0.12831   0.58658   0.61210   0.91403
   1 1   O  1S          0.10533   0.00000   0.00000  -0.10336  -0.11310
   2        2S          0.16994   0.00000   0.00000  -0.35048  -0.45215
   3        3S          0.99936   0.00000   0.00000   0.30814  -0.13512
   4        4PX         0.00000   0.00000   0.00000   0.00000   0.00000
   5        4PY         0.00000   0.35969   0.32002   0.00000   0.00000
   6        4PZ        -0.22964   0.00000   0.00000   0.33568  -0.81238
   7        5PX         0.00000   0.00000   0.00000   0.00000   0.00000
   8        5PY         0.00000   0.60991   0.40329   0.00000   0.00000
   9        5PZ        -0.32298   0.00000   0.00000   0.05230   1.19213
  10        6D 0        0.00778   0.00000   0.00000  -0.01163  -0.00632
  11        6D+1        0.00000   0.00000   0.00000   0.00000   0.00000
  12        6D-1        0.00000  -0.01079   0.10479   0.00000   0.00000
  13        6D+2       -0.00467   0.00000   0.00000  -0.09904  -0.00858
  14        6D-2        0.00000   0.00000   0.00000   0.00000   0.00000
  15 2   H  1S         -0.11532   0.08644   0.96697   0.87031   0.39397
  16        2S         -0.84202   1.31169  -0.78755  -0.60935   0.05237
  17        3PX         0.00000   0.00000   0.00000   0.00000   0.00000
  18        3PY         0.00228   0.00029  -0.05054  -0.20735   0.05272
  19        3PZ        -0.00249  -0.00344  -0.12637  -0.02456   0.13672
  20 3   H  1S         -0.11532  -0.08644  -0.96697   0.87031   0.39397
  21        2S         -0.84202  -1.31169   0.78755  -0.60935   0.05237
  22        3PX         0.00000   0.00000   0.00000   0.00000   0.00000
  23        3PY        -0.00228   0.00029  -0.05054   0.20735  -0.05272
  24        3PZ        -0.00249   0.00344   0.12637  -0.02456   0.13672
                          11        12        13        14        15
                        (B1)--V   (B2)--V   (A1)--V   (A2)--V   (A1)--V
     Eigenvalues --     0.92206   1.00414   1.08510   1.33228   1.46983
   1 1   O  1S          0.00000   0.00000  -0.26232   0.00000  -0.07934
   2        2S          0.00000   0.00000  -1.61989   0.00000  -0.64948
   3        3S          0.00000   0.00000   2.88984   0.00000   1.50112
   4        4PX        -0.96479   0.00000   0.00000   0.00000   0.00000
   5        4PY         0.00000  -0.74867   0.00000   0.00000   0.00000
   6        4PZ         0.00000   0.00000   0.04949   0.00000   0.08094
   7        5PX         1.02806   0.00000   0.00000   0.00000   0.00000
   8        5PY         0.00000   1.78852   0.00000   0.00000   0.00000
   9        5PZ         0.00000   0.00000  -0.54327   0.00000  -1.09178
  10        6D 0        0.00000   0.00000   0.03556   0.00000  -0.20509
  11        6D+1        0.00352   0.00000   0.00000   0.00000   0.00000
  12        6D-1        0.00000  -0.02190   0.00000   0.00000   0.00000
  13        6D+2        0.00000   0.00000   0.03528   0.00000   0.02811
  14        6D-2        0.00000   0.00000   0.00000  -0.16981   0.00000
  15 2   H  1S          0.00000   0.38952  -0.47996   0.00000  -0.66263
  16        2S          0.00000   0.81899  -0.56061   0.00000  -0.16134
  17        3PX         0.01036   0.00000   0.00000   0.66419   0.00000
  18        3PY         0.00000   0.24648  -0.01969   0.00000  -0.39533
  19        3PZ         0.00000   0.10057  -0.27728   0.00000   0.51388
  20 3   H  1S          0.00000  -0.38952  -0.47996   0.00000  -0.66263
  21        2S          0.00000  -0.81899  -0.56061   0.00000  -0.16134
  22        3PX         0.01036   0.00000   0.00000  -0.66419   0.00000
  23        3PY         0.00000   0.24648   0.01969   0.00000   0.39533
  24        3PZ         0.00000  -0.10057  -0.27728   0.00000   0.51388
                          16        17        18        19        20
                        (B1)--V   (B2)--V   (B2)--V   (A1)--V   (B1)--V
     Eigenvalues --     1.57799   1.76410   2.25533   2.27590   2.94122
   1 1   O  1S          0.00000   0.00000   0.00000   0.15292   0.00000
   2        2S          0.00000   0.00000   0.00000   0.78965   0.00000
   3        3S          0.00000   0.00000   0.00000   0.69776   0.00000
   4        4PX        -0.02515   0.00000   0.00000   0.00000   0.00798
   5        4PY         0.00000  -0.08543   0.77746   0.00000   0.00000
   6        4PZ         0.00000   0.00000   0.00000  -0.56334   0.00000
   7        5PX        -0.57897   0.00000   0.00000   0.00000  -0.30016
   8        5PY         0.00000   0.92115   0.21581   0.00000   0.00000
   9        5PZ         0.00000   0.00000   0.00000  -0.22547   0.00000
  10        6D 0        0.00000   0.00000   0.00000  -0.10905   0.00000
  11        6D+1       -0.20741   0.00000   0.00000   0.00000   1.02662
  12        6D-1        0.00000   0.01900   0.18173   0.00000   0.00000
  13        6D+2        0.00000   0.00000   0.00000   0.28706   0.00000
  14        6D-2        0.00000   0.00000   0.00000   0.00000   0.00000
  15 2   H  1S          0.00000   0.40075   0.26316  -0.43296   0.00000
  16        2S          0.00000   0.10061   0.33112  -0.20240   0.00000
  17        3PX         0.74343   0.00000   0.00000   0.00000   0.40876
  18        3PY         0.00000  -0.46606   0.66872  -0.76011   0.00000
  19        3PZ         0.00000   0.65048   0.56951  -0.45120   0.00000
  20 3   H  1S          0.00000  -0.40075  -0.26316  -0.43296   0.00000
  21        2S          0.00000  -0.10061  -0.33112  -0.20240   0.00000
  22        3PX         0.74343   0.00000   0.00000   0.00000   0.40876
  23        3PY         0.00000  -0.46606   0.66872   0.76011   0.00000
  24        3PZ         0.00000  -0.65048  -0.56951  -0.45120   0.00000
                          21        22        23        24
                        (A2)--V   (A1)--V   (A1)--V   (B2)--V
     Eigenvalues --     3.03967   3.16952   3.56082   3.79714
   1 1   O  1S          0.00000   0.01309   0.08439   0.00000
   2        2S          0.00000  -0.03641   0.23685   0.00000
   3        3S          0.00000   0.72946   1.85685   0.00000
   4        4PX         0.00000   0.00000   0.00000   0.00000
   5        4PY         0.00000   0.00000   0.00000  -0.50712
   6        4PZ         0.00000  -0.07573  -0.38919   0.00000
   7        5PX         0.00000   0.00000   0.00000   0.00000
   8        5PY         0.00000   0.00000   0.00000  -1.17372
   9        5PZ         0.00000  -0.62496  -0.78138   0.00000
  10        6D 0        0.00000   1.06607  -0.08584   0.00000
  11        6D+1        0.00000   0.00000   0.00000   0.00000
  12        6D-1        0.00000   0.00000   0.00000   1.32846
  13        6D+2        0.00000  -0.01291  -1.18396   0.00000
  14        6D-2        1.06458   0.00000   0.00000   0.00000
  15 2   H  1S          0.00000  -0.41662  -1.13978  -1.09784
  16        2S          0.00000  -0.09305  -0.22892  -0.27480
  17        3PX         0.39905   0.00000   0.00000   0.00000
  18        3PY         0.00000  -0.44842  -0.61680  -0.65123
  19        3PZ         0.00000   0.28968  -0.52754  -0.46304
  20 3   H  1S          0.00000  -0.41662  -1.13978   1.09784
  21        2S          0.00000  -0.09305  -0.22892   0.27480
  22        3PX        -0.39905   0.00000   0.00000   0.00000
  23        3PY         0.00000   0.44842   0.61680  -0.65123
  24        3PZ         0.00000   0.28968  -0.52754   0.46304
          Condensed to atoms (all electrons):
               1          2          3
     1  O    7.622250   0.337102   0.337102
     2  H    0.337102   0.547402  -0.032731
     3  H    0.337102  -0.032731   0.547402
 Mulliken charges:
               1
     1  O   -0.296454
     2  H    0.148227
     3  H    0.148227
 Sum of Mulliken charges =  -0.00000
 Mulliken charges with hydrogens summed into heavy atoms:
               1
     1  O   -0.000000
 Electronic spatial extent (au):  <R**2>=             18.7794
 Charge=             -0.0000 electrons
 Dipole moment (field-independent basis, Debye):
    X=              0.0000    Y=              0.0000    Z=             -1.9090  Tot=              1.9090
 Quadrupole moment (field-independent basis, Debye-Ang):
   XX=             -6.9708   YY=             -4.1219   ZZ=             -6.0744
   XY=              0.0000   XZ=             -0.0000   YZ=             -0.0000
 Traceless Quadrupole moment (field-independent basis, Debye-Ang):
   XX=             -1.2485   YY=              1.6005   ZZ=             -0.3520
   XY=              0.0000   XZ=             -0.0000   YZ=             -0.0000
 Octapole moment (field-independent basis, Debye-Ang**2):
  XXX=             -0.0000  YYY=             -0.0000  ZZZ=             -0.9975  XYY=              0.0000
  XXY=             -0.0000  XXZ=             -0.2757  XZZ=             -0.0000  YZZ=             -0.0000
  YYZ=             -1.0929  XYZ=             -0.0000
 Hexadecapole moment (field-independent basis, Debye-Ang**3):
 XXXX=             -4.8021 YYYY=             -5.9023 ZZZZ=             -5.9114 XXXY=             -0.0000
 XXXZ=              0.0000 YYYX=             -0.0000 YYYZ=              0.0000 ZZZX=              0.0000
 ZZZY=             -0.0000 XXYY=             -2.0699 XXZZ=             -1.8245 YYZZ=             -1.7258
 XXYZ=             -0.0000 YYXZ=             -0.0000 ZZXY=             -0.0000
 N-N= 9.253567584941D+00 E-N=-1.991138723629D+02  KE= 7.587201455549D+01
 Symmetry A1   KE= 6.769873946637D+01
 Symmetry A2   KE= 4.991181218446D-35
 Symmetry B1   KE= 4.621368868532D+00
 Symmetry B2   KE= 3.551906220586D+00
 Orbital energies and kinetic energies (alpha):
                                 1                 2
   1         (A1)--O         -19.113942         28.758295
   2         (A1)--O          -0.981521          2.813717
   3         (B2)--O          -0.528594          1.775953
   4         (A1)--O          -0.356566          2.277358
   5         (B1)--O          -0.290904          2.310684
   6         (A1)--V           0.049617          0.936310
   7         (B2)--V           0.128308          0.985097
   8         (B2)--V           0.586585          2.005664
   9         (A1)--V           0.612099          2.353078
  10         (A1)--V           0.914034          3.387271
  11         (B1)--V           0.922059          3.655339
  12         (B2)--V           1.004139          2.826019
  13         (A1)--V           1.085096          3.511315
  14         (A2)--V           1.332280          2.126750
  15         (A1)--V           1.469833          2.425017
  16         (B1)--V           1.577992          2.336957
  17         (B2)--V           1.764100          2.463733
  18         (B2)--V           2.255331          4.248802
  19         (A1)--V           2.275896          4.463541
  20         (B1)--V           2.941219          4.434227
  21         (A2)--V           3.039675          4.576743
  22         (A1)--V           3.169524          4.718349
  23         (A1)--V           3.560816          5.621099
  24         (B2)--V           3.797140          5.880569
 Total kinetic energy from orbitals= 7.587201455549D+01
 No NMR shielding tensors so no spin-rotation constants.
 Leave Link  601 at Thu Jan 11 16:00:34 2018, MaxMem=  2097152000 cpu:         0.7
 (Enter /home/chemsoft/gaussian/g09e01/g09/l701.exe)
 Compute integral first derivatives.
 ... and contract with generalized density number  0.
   4 Symmetry operations used in ECPInt.
 ECPInt:  NShTT=      78 NPrTT=     272 LenC2=      79 LenP2D=     271.
 LDataN:  DoStor=T MaxTD1= 5 Len=  102
 Leave Link  701 at Thu Jan 11 16:00:34 2018, MaxMem=  2097152000 cpu:         0.8
 (Enter /home/chemsoft/gaussian/g09e01/g09/l702.exe)
 L702 exits ... SP integral derivatives will be done elsewhere.
 Leave Link  702 at Thu Jan 11 16:00:34 2018, MaxMem=  2097152000 cpu:         0.1
 (Enter /home/chemsoft/gaussian/g09e01/g09/l703.exe)
 Compute integral first derivatives, UseDBF=F ICtDFT=           0.
 Integral derivatives from FoFJK, PRISM(SPDF).
 Calling FoFJK, ICntrl=      2127 FMM=F ISym2X=1 I1Cent= 0 IOpClX= 0 NMat=1 NMatS=1 NMatT=0.
 FoFJK:  IHMeth= 1 ICntrl=    2127 DoSepK=F KAlg= 0 I1Cent=   0 FoldK=F
 IRaf=         0 NMat=   1 IRICut=       1 DoRegI=T DoRafI=F ISym2E= 1.
 FoFCou: FMM=F IPFlag=           0 FMFlag=      100000 FMFlg1=         800
         NFxFlg=           0 DoJE=F BraDBF=F KetDBF=F FulRan=T
         wScrn=  0.000000 ICntrl=    2127 IOpCl=  0 I1Cent=           0 NGrid=           0
         NMat0=    1 NMatS0=      1 NMatT0=    0 NMatD0=    1 NMtDS0=    0 NMtDT0=    0
 Petite list used in FoFCou.
 Leave Link  703 at Thu Jan 11 16:00:34 2018, MaxMem=  2097152000 cpu:         1.1
 (Enter /home/chemsoft/gaussian/g09e01/g09/l716.exe)
 Dipole        = 2.86381008D-17 0.00000000D+00-7.51076965D-01
 ***** Axes restored to original set *****
 -------------------------------------------------------------------
 Center     Atomic                   Forces (Hartrees/Bohr)
 Number     Number              X              Y              Z
 -------------------------------------------------------------------
      1        8          -0.024453532    0.000000000   -0.017291338
      2        1           0.008369886   -0.000000000    0.014100096
      3        1           0.016083646   -0.000000000    0.003191243
 -------------------------------------------------------------------
 Cartesian Forces:  Max     0.024453532 RMS     0.012625816
 Leave Link  716 at Thu Jan 11 16:00:34 2018, MaxMem=  2097152000 cpu:         0.2
 (Enter /home/chemsoft/gaussian/g09e01/g09/l103.exe)

 GradGradGradGradGradGradGradGradGradGradGradGradGradGradGradGradGradGrad
 Berny optimization.
 FormGI is forming the generalized inverse of G from B-inverse, IUseBI=4.
 Internal  Forces:  Max     0.015025953 RMS     0.014415324
 Search for a local minimum.
 Step number   1 out of a maximum of  100
 All quantities printed in internal units (Hartrees-Bohrs-Radians)
 RMS Force = .14415D-01 SwitMx=.10000D-02 MixMth= 1
 Mixed Optimization -- RFO/linear search
 Second derivative matrix not updated -- first step.
 The second derivative matrix:
                          R1        R2        A1
           R1           0.57681
           R2           0.00000   0.57681
           A1           0.00000   0.00000   0.16000
 ITU=  0
     Eigenvalues ---    0.16000   0.57681   0.57681
 RFO step:  Lambda=-2.07988876D-03 EMin= 1.60000000D-01
 Linear search not attempted -- first point.
 Iteration  1 RMS(Cart)=  0.04497850 RMS(Int)=  0.00172591
 Iteration  2 RMS(Cart)=  0.00182452 RMS(Int)=  0.00000085
 Iteration  3 RMS(Cart)=  0.00000066 RMS(Int)=  0.00000000
 ITry= 1 IFail=0 DXMaxC= 4.45D-02 DCOld= 1.00D+10 DXMaxT= 3.00D-01 DXLimC= 3.00D+00 Rises=F
 ClnCor:  largest displacement from symmetrization is 1.13D-14 for atom     3.
 Variable       Old X    -DE/DX   Delta X   Delta X   Delta X     New X
                                 (Linear)    (Quad)   (Total)
    R1        1.79524   0.01410   0.00000   0.02436   0.02436   1.81960
    R2        1.79524   0.01410   0.00000   0.02436   0.02436   1.81960
    A1        1.91063  -0.01503   0.00000  -0.09271  -0.09271   1.81792
         Item               Value     Threshold  Converged?
 Maximum Force            0.015026     0.000450     NO 
 RMS     Force            0.014415     0.000300     NO 
 Maximum Displacement     0.044513     0.001800     NO 
 RMS     Displacement     0.045844     0.001200     NO 
 Predicted change in Energy=-1.050115D-03
 Lowest energy point so far.  Saving SCF results.
 GradGradGradGradGradGradGradGradGradGradGradGradGradGradGradGradGradGrad

 Leave Link  103 at Thu Jan 11 16:00:34 2018, MaxMem=  2097152000 cpu:         0.1
 (Enter /home/chemsoft/gaussian/g09e01/g09/l202.exe)
                          Input orientation:                          
 ---------------------------------------------------------------------
 Center     Atomic      Atomic             Coordinates (Angstroms)
 Number     Number       Type             X           Y           Z
 ---------------------------------------------------------------------
      1          8           0       -0.023556    0.000000   -0.016656
      2          1           0        0.021062   -0.000000    0.945199
      3          1           0        0.898164    0.000000   -0.295205
 ---------------------------------------------------------------------
                    Distance matrix (angstroms):
                    1          2          3
     1  O    0.000000
     2  H    0.962889   0.000000
     3  H    0.962889   1.519180   0.000000
 Stoichiometry    H2O
 Framework group  C2V[C2(O),SGV(H2)]
 Deg. of freedom     2
 Full point group                 C2V     NOp   4
 RotChk:  IX=3 Diff= 7.65D-16
 Largest Abelian subgroup         C2V     NOp   4
 Largest concise Abelian subgroup C2      NOp   2
                         Standard orientation:                         
 ---------------------------------------------------------------------
 Center     Atomic      Atomic             Coordinates (Angstroms)
 Number     Number       Type             X           Y           Z
 ---------------------------------------------------------------------
      1          8           0        0.000000    0.000000    0.118352
      2          1           0        0.000000   -0.759590   -0.473407
      3          1           0        0.000000    0.759590   -0.473407
 ---------------------------------------------------------------------
 Rotational constants (GHZ):    806.2283018    434.5536378    282.3618158
 Leave Link  202 at Thu Jan 11 16:00:35 2018, MaxMem=  2097152000 cpu:         0.1
 (Enter /home/chemsoft/gaussian/g09e01/g09/l301.exe)
 Standard basis: def2SVP (5D, 7F)
 Ernie: Thresh=  0.10000D-02 Tol=  0.10000D-05 Strict=F.
 There are    12 symmetry adapted cartesian basis functions of A1  symmetry.
 There are     2 symmetry adapted cartesian basis functions of A2  symmetry.
 There are     4 symmetry adapted cartesian basis functions of B1  symmetry.
 There are     7 symmetry adapted cartesian basis functions of B2  symmetry.
 There are    11 symmetry adapted basis functions of A1  symmetry.
 There are     2 symmetry adapted basis functions of A2  symmetry.
 There are     4 symmetry adapted basis functions of B1  symmetry.
 There are     7 symmetry adapted basis functions of B2  symmetry.
    24 basis functions,    39 primitive gaussians,    25 cartesian basis functions
     5 alpha electrons        5 beta electrons
       nuclear repulsion energy         9.1414868459 Hartrees.
 IExCor=  402 DFT=T Ex+Corr=B3LYP ExCW=0 ScaHFX=  0.200000
 ScaDFX=  0.800000  0.720000  1.000000  0.810000 ScalE2=  1.000000  1.000000
 IRadAn=      5 IRanWt=     -1 IRanGd=            0 ICorTp=0 IEmpDi=  4
 NAtoms=    3 NActive=    3 NUniq=    2 SFac= 2.25D+00 NAtFMM=   60 NAOKFM=F Big=F
 Integral buffers will be    131072 words long.
 Raffenetti 2 integral format.
 Two-electron integral symmetry is turned on.
 Leave Link  301 at Thu Jan 11 16:00:35 2018, MaxMem=  2097152000 cpu:         0.5
 (Enter /home/chemsoft/gaussian/g09e01/g09/l302.exe)
 NPDir=0 NMtPBC=     1 NCelOv=     1 NCel=       1 NClECP=     1 NCelD=      1
         NCelK=      1 NCelE2=     1 NClLst=     1 CellRange=     0.0.
 One-electron integrals computed using PRISM.
 One-electron integral symmetry used in STVInt
   4 Symmetry operations used in ECPInt.
 ECPInt:  NShTT=      78 NPrTT=     272 LenC2=      79 LenP2D=     271.
 LDataN:  DoStor=T MaxTD1= 4 Len=   56
 NBasis=    24 RedAO= T EigKep=  5.98D-02  NBF=    11     2     4     7
 NBsUse=    24 1.00D-06 EigRej= -1.00D+00 NBFU=    11     2     4     7
 Precomputing XC quadrature grid using
 IXCGrd= 4 IRadAn=           5 IRanWt=          -1 IRanGd=           0 AccXCQ= 0.00D+00.
 Generated NRdTot=       0 NPtTot=           0 NUsed=           0 NTot=          32
 NSgBfM=    25    25    25    25    25 MxSgAt=     3 MxSgA2=     3.
 Leave Link  302 at Thu Jan 11 16:00:35 2018, MaxMem=  2097152000 cpu:         0.9
 (Enter /home/chemsoft/gaussian/g09e01/g09/l303.exe)
 DipDrv:  MaxL=1.
 Leave Link  303 at Thu Jan 11 16:00:35 2018, MaxMem=  2097152000 cpu:         0.2
 (Enter /home/chemsoft/gaussian/g09e01/g09/l401.exe)
 Initial guess from the checkpoint file:  "b3lypsvp.chk"
 B after Tr=    -0.000000    0.000000    0.000000
         Rot=    1.000000   -0.000000   -0.000000   -0.000000 Ang=   0.00 deg.
 Guess basis will be translated and rotated to current coordinates.
 JPrj=2 DoOrth=T DoCkMO=T.
 Initial guess orbital symmetries:
       Occupied  (A1) (A1) (B2) (A1) (B1)
       Virtual   (A1) (A1) (A1) (A1) (A1) (A1) (A1) (A1) (A2) (A2)
                 (B1) (B1) (B1) (B2) (B2) (B2) (B2) (B2) (B2)
 The electronic state of the initial guess is 1-A1.
 Generating alternative initial guess.
 ExpMin= 1.22D-01 ExpMax= 2.27D+03 ExpMxC= 3.41D+02 IAcc=2 IRadAn=         4 AccDes= 0.00D+00
 Harris functional with IExCor=  402 and IRadAn=       4 diagonalized for initial guess.
 HarFok:  IExCor=  402 AccDes= 0.00D+00 IRadAn=         4 IDoV= 1 UseB2=F ITyADJ=14
 ICtDFT=  3500011 ScaDFX=  1.000000  1.000000  1.000000  1.000000
 FoFCou: FMM=F IPFlag=           0 FMFlag=      100000 FMFlg1=           0
         NFxFlg=           0 DoJE=T BraDBF=F KetDBF=T FulRan=T
         wScrn=  0.000000 ICntrl=     500 IOpCl=  0 I1Cent=   200000004 NGrid=           0
         NMat0=    1 NMatS0=      1 NMatT0=    0 NMatD0=    1 NMtDS0=    0 NMtDT0=    0
 Petite list used in FoFCou.
 Harris En= -76.3962633868961    
 Leave Link  401 at Thu Jan 11 16:00:35 2018, MaxMem=  2097152000 cpu:         1.2
 (Enter /home/chemsoft/gaussian/g09e01/g09/l502.exe)
 Closed shell SCF:
 Using DIIS extrapolation, IDIIS=  1040.
 Integral symmetry usage will be decided dynamically.
 Keep R1 ints in memory in symmetry-blocked form, NReq=1164839.
 IVT=      256315 IEndB=      256315 NGot=  2097152000 MDV=  2096881987
 LenX=  2096881987 LenY=  2096880921
 Requested convergence on RMS density matrix=1.00D-08 within 500 cycles.
 Requested convergence on MAX density matrix=1.00D-06.
 Requested convergence on             energy=1.00D-06.
 No special actions if energy rises.
 FoFCou: FMM=F IPFlag=           0 FMFlag=           0 FMFlg1=           0
         NFxFlg=           0 DoJE=F BraDBF=F KetDBF=F FulRan=T
         wScrn=  0.000000 ICntrl=     600 IOpCl=  0 I1Cent=           0 NGrid=           0
         NMat0=    1 NMatS0=    300 NMatT0=    0 NMatD0=    1 NMtDS0=    0 NMtDT0=    0
 Petite list used in FoFCou.
 Integral accuracy reduced to 1.0D-05 until final iterations.

 Cycle   1  Pass 0  IDiag  1:
 E= -76.3576731324069    
 DIIS: error= 4.04D-03 at cycle   1 NSaved=   1.
 NSaved= 1 IEnMin= 1 EnMin= -76.3576731324069     IErMin= 1 ErrMin= 4.04D-03
 ErrMax= 4.04D-03  0.00D+00 EMaxC= 1.00D-01 BMatC= 4.86D-04 BMatP= 4.86D-04
 IDIUse=3 WtCom= 9.60D-01 WtEn= 4.04D-02
 Coeff-Com:  0.100D+01
 Coeff-En:   0.100D+01
 Coeff:      0.100D+01
 Gap=     0.946 Goal=   None    Shift=    0.000
 GapD=    0.946 DampG=2.000 DampE=1.000 DampFc=2.0000 IDamp=-1.
 RMSDP=1.73D-03 MaxDP=1.23D-02              OVMax= 1.15D-02

 Cycle   2  Pass 0  IDiag  1:
 E= -76.3582400775286     Delta-E=       -0.000566945122 Rises=F Damp=F
 DIIS: error= 1.54D-03 at cycle   2 NSaved=   2.
 NSaved= 2 IEnMin= 2 EnMin= -76.3582400775286     IErMin= 2 ErrMin= 1.54D-03
 ErrMax= 1.54D-03  0.00D+00 EMaxC= 1.00D-01 BMatC= 3.91D-05 BMatP= 4.86D-04
 IDIUse=3 WtCom= 9.85D-01 WtEn= 1.54D-02
 Coeff-Com:  0.773D-01 0.923D+00
 Coeff-En:   0.000D+00 0.100D+01
 Coeff:      0.761D-01 0.924D+00
 Gap=     0.339 Goal=   None    Shift=    0.000
 RMSDP=3.18D-04 MaxDP=2.97D-03 DE=-5.67D-04 OVMax= 2.76D-03

 Cycle   3  Pass 0  IDiag  1:
 E= -76.3582333182865     Delta-E=        0.000006759242 Rises=F Damp=F
 DIIS: error= 1.66D-03 at cycle   3 NSaved=   3.
 NSaved= 3 IEnMin= 2 EnMin= -76.3582400775286     IErMin= 2 ErrMin= 1.54D-03
 ErrMax= 1.66D-03  0.00D+00 EMaxC= 1.00D-01 BMatC= 4.89D-05 BMatP= 3.91D-05
 IDIUse=3 WtCom= 1.97D-01 WtEn= 8.03D-01
 Coeff-Com: -0.199D-01 0.536D+00 0.484D+00
 Coeff-En:   0.000D+00 0.550D+00 0.450D+00
 Coeff:     -0.393D-02 0.547D+00 0.457D+00
 Gap=     0.337 Goal=   None    Shift=    0.000
 RMSDP=1.82D-04 MaxDP=1.53D-03 DE= 6.76D-06 OVMax= 1.71D-03

 Cycle   4  Pass 0  IDiag  1:
 E= -76.3582681473785     Delta-E=       -0.000034829092 Rises=F Damp=F
 DIIS: error= 7.53D-05 at cycle   4 NSaved=   4.
 NSaved= 4 IEnMin= 4 EnMin= -76.3582681473785     IErMin= 4 ErrMin= 7.53D-05
 ErrMax= 7.53D-05  0.00D+00 EMaxC= 1.00D-01 BMatC= 8.33D-08 BMatP= 3.91D-05
 IDIUse=1 WtCom= 1.00D+00 WtEn= 0.00D+00
 Coeff-Com: -0.630D-02 0.976D-01 0.927D-01 0.816D+00
 Coeff:     -0.630D-02 0.976D-01 0.927D-01 0.816D+00
 Gap=     0.337 Goal=   None    Shift=    0.000
 RMSDP=8.35D-06 MaxDP=5.80D-05 DE=-3.48D-05 OVMax= 9.27D-05

 Initial convergence to 1.0D-05 achieved.  Increase integral accuracy.
 Cycle   5  Pass 1  IDiag  1:
 E= -76.3582686624395     Delta-E=       -0.000000515061 Rises=F Damp=F
 DIIS: error= 5.74D-06 at cycle   1 NSaved=   1.
 NSaved= 1 IEnMin= 1 EnMin= -76.3582686624395     IErMin= 1 ErrMin= 5.74D-06
 ErrMax= 5.74D-06  0.00D+00 EMaxC= 1.00D-01 BMatC= 9.33D-10 BMatP= 9.33D-10
 IDIUse=1 WtCom= 1.00D+00 WtEn= 0.00D+00
 Coeff-Com:  0.100D+01
 Coeff:      0.100D+01
 Gap=     0.337 Goal=   None    Shift=    0.000
 RMSDP=8.35D-06 MaxDP=5.80D-05 DE=-5.15D-07 OVMax= 1.23D-05

 Cycle   6  Pass 1  IDiag  1:
 E= -76.3582686630634     Delta-E=       -0.000000000624 Rises=F Damp=F
 DIIS: error= 3.98D-06 at cycle   2 NSaved=   2.
 NSaved= 2 IEnMin= 2 EnMin= -76.3582686630634     IErMin= 2 ErrMin= 3.98D-06
 ErrMax= 3.98D-06  0.00D+00 EMaxC= 1.00D-01 BMatC= 3.09D-10 BMatP= 9.33D-10
 IDIUse=1 WtCom= 1.00D+00 WtEn= 0.00D+00
 Coeff-Com:  0.346D+00 0.654D+00
 Coeff:      0.346D+00 0.654D+00
 Gap=     0.337 Goal=   None    Shift=    0.000
 RMSDP=6.61D-07 MaxDP=5.75D-06 DE=-6.24D-10 OVMax= 6.65D-06

 Cycle   7  Pass 1  IDiag  1:
 E= -76.3582686632295     Delta-E=       -0.000000000166 Rises=F Damp=F
 DIIS: error= 2.19D-06 at cycle   3 NSaved=   3.
 NSaved= 3 IEnMin= 3 EnMin= -76.3582686632295     IErMin= 3 ErrMin= 2.19D-06
 ErrMax= 2.19D-06  0.00D+00 EMaxC= 1.00D-01 BMatC= 8.24D-11 BMatP= 3.09D-10
 IDIUse=1 WtCom= 1.00D+00 WtEn= 0.00D+00
 Coeff-Com:  0.107D+00 0.370D+00 0.522D+00
 Coeff:      0.107D+00 0.370D+00 0.522D+00
 Gap=     0.337 Goal=   None    Shift=    0.000
 RMSDP=2.25D-07 MaxDP=1.93D-06 DE=-1.66D-10 OVMax= 2.47D-06

 Cycle   8  Pass 1  IDiag  1:
 E= -76.3582686632874     Delta-E=       -0.000000000058 Rises=F Damp=F
 DIIS: error= 1.10D-07 at cycle   4 NSaved=   4.
 NSaved= 4 IEnMin= 4 EnMin= -76.3582686632874     IErMin= 4 ErrMin= 1.10D-07
 ErrMax= 1.10D-07  0.00D+00 EMaxC= 1.00D-01 BMatC= 2.54D-13 BMatP= 8.24D-11
 IDIUse=1 WtCom= 1.00D+00 WtEn= 0.00D+00
 Coeff-Com: -0.212D-01-0.168D-01 0.121D-01 0.103D+01
 Coeff:     -0.212D-01-0.168D-01 0.121D-01 0.103D+01
 Gap=     0.337 Goal=   None    Shift=    0.000
 RMSDP=3.97D-08 MaxDP=3.16D-07 DE=-5.79D-11 OVMax= 5.40D-07

 Cycle   9  Pass 1  IDiag  1:
 E= -76.3582686632878     Delta-E=       -0.000000000000 Rises=F Damp=F
 DIIS: error= 7.01D-09 at cycle   5 NSaved=   5.
 NSaved= 5 IEnMin= 5 EnMin= -76.3582686632878     IErMin= 5 ErrMin= 7.01D-09
 ErrMax= 7.01D-09  0.00D+00 EMaxC= 1.00D-01 BMatC= 4.89D-16 BMatP= 2.54D-13
 IDIUse=1 WtCom= 1.00D+00 WtEn= 0.00D+00
 Coeff-Com: -0.303D-03-0.150D-02-0.385D-02 0.234D-02 0.100D+01
 Coeff:     -0.303D-03-0.150D-02-0.385D-02 0.234D-02 0.100D+01
 Gap=     0.337 Goal=   None    Shift=    0.000
 RMSDP=1.17D-09 MaxDP=9.92D-09 DE=-3.84D-13 OVMax= 1.48D-08

 SCF Done:  E(RB3LYP) =  -76.3582686633     A.U. after    9 cycles
            NFock=  9  Conv=0.12D-08     -V/T= 2.0068
 KE= 7.584512936128D+01 PE=-1.988717245565D+02 EE= 3.752683968609D+01
 Leave Link  502 at Thu Jan 11 16:00:36 2018, MaxMem=  2097152000 cpu:         1.8
 (Enter /home/chemsoft/gaussian/g09e01/g09/l508.exe)
 QCSCF skips out because SCF is already converged.
 Leave Link  508 at Thu Jan 11 16:00:36 2018, MaxMem=  2097152000 cpu:         0.0
 (Enter /home/chemsoft/gaussian/g09e01/g09/l701.exe)
 Compute integral first derivatives.
 ... and contract with generalized density number  0.
   4 Symmetry operations used in ECPInt.
 ECPInt:  NShTT=      78 NPrTT=     272 LenC2=      79 LenP2D=     271.
 LDataN:  DoStor=T MaxTD1= 5 Len=  102
 Leave Link  701 at Thu Jan 11 16:00:36 2018, MaxMem=  2097152000 cpu:         0.8
 (Enter /home/chemsoft/gaussian/g09e01/g09/l702.exe)
 L702 exits ... SP integral derivatives will be done elsewhere.
 Leave Link  702 at Thu Jan 11 16:00:36 2018, MaxMem=  2097152000 cpu:         0.1
 (Enter /home/chemsoft/gaussian/g09e01/g09/l703.exe)
 Compute integral first derivatives, UseDBF=F ICtDFT=           0.
 Integral derivatives from FoFJK, PRISM(SPDF).
 Calling FoFJK, ICntrl=      2127 FMM=F ISym2X=1 I1Cent= 0 IOpClX= 0 NMat=1 NMatS=1 NMatT=0.
 FoFJK:  IHMeth= 1 ICntrl=    2127 DoSepK=F KAlg= 0 I1Cent=   0 FoldK=F
 IRaf=         0 NMat=   1 IRICut=       1 DoRegI=T DoRafI=F ISym2E= 1.
 FoFCou: FMM=F IPFlag=           0 FMFlag=      100000 FMFlg1=         800
         NFxFlg=           0 DoJE=F BraDBF=F KetDBF=F FulRan=T
         wScrn=  0.000000 ICntrl=    2127 IOpCl=  0 I1Cent=           0 NGrid=           0
         NMat0=    1 NMatS0=      1 NMatT0=    0 NMatD0=    1 NMtDS0=    0 NMtDT0=    0
 Petite list used in FoFCou.
 Leave Link  703 at Thu Jan 11 16:00:36 2018, MaxMem=  2097152000 cpu:         1.0
 (Enter /home/chemsoft/gaussian/g09e01/g09/l716.exe)
 Dipole        = 2.79007226D-17 2.22044605D-16-7.82432919D-01
 ***** Axes restored to original set *****
 -------------------------------------------------------------------
 Center     Atomic                   Forces (Hartrees/Bohr)
 Number     Number              X              Y              Z
 -------------------------------------------------------------------
      1        8          -0.005057948    0.000000000   -0.003576526
      2        1           0.001548806   -0.000000000    0.003174423
      3        1           0.003509142   -0.000000000    0.000402103
 -------------------------------------------------------------------
 Cartesian Forces:  Max     0.005057948 RMS     0.002652586
 Leave Link  716 at Thu Jan 11 16:00:36 2018, MaxMem=  2097152000 cpu:         0.1
 (Enter /home/chemsoft/gaussian/g09e01/g09/l103.exe)

 GradGradGradGradGradGradGradGradGradGradGradGradGradGradGradGradGradGrad
 Berny optimization.
 Using GEDIIS/GDIIS optimizer.
 FormGI is forming the generalized inverse of G from B-inverse, IUseBI=4.
 Internal  Forces:  Max     0.003242780 RMS     0.003028814
 Search for a local minimum.
 Step number   2 out of a maximum of  100
 All quantities printed in internal units (Hartrees-Bohrs-Radians)
 RMS Force = .30288D-02 SwitMx=.10000D-02 MixMth= 1
 Mixed Optimization -- RFO/linear search
 Update second derivatives using D2CorX and points    1    2
 DE= -1.24D-03 DEPred=-1.05D-03 R= 1.18D+00
 TightC=F SS=  1.41D+00  RLast= 9.89D-02 DXNew= 5.0454D-01 2.9670D-01
 Trust test= 1.18D+00 RLast= 9.89D-02 DXMaxT set to 3.00D-01
 The second derivative matrix:
                          R1        R2        A1
           R1           0.55090
           R2          -0.02591   0.55090
           A1           0.02082   0.02082   0.14554
 ITU=  1  0
 Use linear search instead of GDIIS.
     Eigenvalues ---    0.14327   0.52726   0.57681
 RFO step:  Lambda=-2.91965001D-06 EMin= 1.43268563D-01
 Quartic linear search produced a step of  0.22697.
 Iteration  1 RMS(Cart)=  0.00928652 RMS(Int)=  0.00007665
 Iteration  2 RMS(Cart)=  0.00008362 RMS(Int)=  0.00000000
 Iteration  3 RMS(Cart)=  0.00000000 RMS(Int)=  0.00000000
 ITry= 1 IFail=0 DXMaxC= 9.61D-03 DCOld= 1.00D+10 DXMaxT= 3.00D-01 DXLimC= 3.00D+00 Rises=F
 ClnCor:  largest displacement from symmetrization is 1.55D-14 for atom     3.
 Variable       Old X    -DE/DX   Delta X   Delta X   Delta X     New X
                                 (Linear)    (Quad)   (Total)
    R1        1.81960   0.00324   0.00553   0.00134   0.00686   1.82646
    R2        1.81960   0.00324   0.00553   0.00134   0.00686   1.82646
    A1        1.81792  -0.00255  -0.02104   0.00232  -0.01872   1.79921
         Item               Value     Threshold  Converged?
 Maximum Force            0.003243     0.000450     NO 
 RMS     Force            0.003029     0.000300     NO 
 Maximum Displacement     0.009609     0.001800     NO 
 RMS     Displacement     0.009325     0.001200     NO 
 Predicted change in Energy=-4.732007D-05
 Lowest energy point so far.  Saving SCF results.
 GradGradGradGradGradGradGradGradGradGradGradGradGradGradGradGradGradGrad

 Leave Link  103 at Thu Jan 11 16:00:37 2018, MaxMem=  2097152000 cpu:         0.0
 (Enter /home/chemsoft/gaussian/g09e01/g09/l202.exe)
                          Input orientation:                          
 ---------------------------------------------------------------------
 Center     Atomic      Atomic             Coordinates (Angstroms)
 Number     Number       Type             X           Y           Z
 ---------------------------------------------------------------------
      1          8           0       -0.028640    0.000000   -0.020252
      2          1           0        0.025178   -0.000000    0.944770
      3          1           0        0.899132    0.000000   -0.291181
 ---------------------------------------------------------------------
                    Distance matrix (angstroms):
                    1          2          3
     1  O    0.000000
     2  H    0.966522   0.000000
     3  H    0.966522   1.513727   0.000000
 Stoichiometry    H2O
 Framework group  C2V[C2(O),SGV(H2)]
 Deg. of freedom     2
 Full point group                 C2V     NOp   4
 RotChk:  IX=3 Diff= 9.65D-16
 Largest Abelian subgroup         C2V     NOp   4
 Largest concise Abelian subgroup C2      NOp   2
                         Standard orientation:                         
 ---------------------------------------------------------------------
 Center     Atomic      Atomic             Coordinates (Angstroms)
 Number     Number       Type             X           Y           Z
 ---------------------------------------------------------------------
      1          8           0       -0.000000    0.000000    0.120220
      2          1           0        0.000000   -0.756864   -0.480880
      3          1           0        0.000000    0.756864   -0.480880
 ---------------------------------------------------------------------
 Rotational constants (GHZ):    781.3645290    437.6901065    280.5415885
 Leave Link  202 at Thu Jan 11 16:00:37 2018, MaxMem=  2097152000 cpu:         0.0
 (Enter /home/chemsoft/gaussian/g09e01/g09/l301.exe)
 Standard basis: def2SVP (5D, 7F)
 Ernie: Thresh=  0.10000D-02 Tol=  0.10000D-05 Strict=F.
 There are    12 symmetry adapted cartesian basis functions of A1  symmetry.
 There are     2 symmetry adapted cartesian basis functions of A2  symmetry.
 There are     4 symmetry adapted cartesian basis functions of B1  symmetry.
 There are     7 symmetry adapted cartesian basis functions of B2  symmetry.
 There are    11 symmetry adapted basis functions of A1  symmetry.
 There are     2 symmetry adapted basis functions of A2  symmetry.
 There are     4 symmetry adapted basis functions of B1  symmetry.
 There are     7 symmetry adapted basis functions of B2  symmetry.
    24 basis functions,    39 primitive gaussians,    25 cartesian basis functions
     5 alpha electrons        5 beta electrons
       nuclear repulsion energy         9.1096949094 Hartrees.
 IExCor=  402 DFT=T Ex+Corr=B3LYP ExCW=0 ScaHFX=  0.200000
 ScaDFX=  0.800000  0.720000  1.000000  0.810000 ScalE2=  1.000000  1.000000
 IRadAn=      5 IRanWt=     -1 IRanGd=            0 ICorTp=0 IEmpDi=  4
 NAtoms=    3 NActive=    3 NUniq=    2 SFac= 2.25D+00 NAtFMM=   60 NAOKFM=F Big=F
 Integral buffers will be    131072 words long.
 Raffenetti 2 integral format.
 Two-electron integral symmetry is turned on.
 Leave Link  301 at Thu Jan 11 16:00:37 2018, MaxMem=  2097152000 cpu:         0.5
 (Enter /home/chemsoft/gaussian/g09e01/g09/l302.exe)
 NPDir=0 NMtPBC=     1 NCelOv=     1 NCel=       1 NClECP=     1 NCelD=      1
         NCelK=      1 NCelE2=     1 NClLst=     1 CellRange=     0.0.
 One-electron integrals computed using PRISM.
 One-electron integral symmetry used in STVInt
   4 Symmetry operations used in ECPInt.
 ECPInt:  NShTT=      78 NPrTT=     272 LenC2=      79 LenP2D=     271.
 LDataN:  DoStor=T MaxTD1= 4 Len=   56
 NBasis=    24 RedAO= T EigKep=  5.99D-02  NBF=    11     2     4     7
 NBsUse=    24 1.00D-06 EigRej= -1.00D+00 NBFU=    11     2     4     7
 Precomputing XC quadrature grid using
 IXCGrd= 4 IRadAn=           5 IRanWt=          -1 IRanGd=           0 AccXCQ= 0.00D+00.
 Generated NRdTot=       0 NPtTot=           0 NUsed=           0 NTot=          32
 NSgBfM=    25    25    25    25    25 MxSgAt=     3 MxSgA2=     3.
 Leave Link  302 at Thu Jan 11 16:00:37 2018, MaxMem=  2097152000 cpu:         0.8
 (Enter /home/chemsoft/gaussian/g09e01/g09/l303.exe)
 DipDrv:  MaxL=1.
 Leave Link  303 at Thu Jan 11 16:00:37 2018, MaxMem=  2097152000 cpu:         0.2
 (Enter /home/chemsoft/gaussian/g09e01/g09/l401.exe)
 Initial guess from the checkpoint file:  "b3lypsvp.chk"
 B after Tr=    -0.000000   -0.000000    0.000000
         Rot=    1.000000   -0.000000   -0.000000    0.000000 Ang=   0.00 deg.
 Guess basis will be translated and rotated to current coordinates.
 JPrj=2 DoOrth=T DoCkMO=T.
 Initial guess orbital symmetries:
       Occupied  (A1) (A1) (B2) (A1) (B1)
       Virtual   (A1) (A1) (A1) (A1) (A1) (A1) (A1) (A1) (A2) (A2)
                 (B1) (B1) (B1) (B2) (B2) (B2) (B2) (B2) (B2)
 The electronic state of the initial guess is 1-A1.
 Leave Link  401 at Thu Jan 11 16:00:37 2018, MaxMem=  2097152000 cpu:         0.6
 (Enter /home/chemsoft/gaussian/g09e01/g09/l502.exe)
 Closed shell SCF:
 Using DIIS extrapolation, IDIIS=  1040.
 Integral symmetry usage will be decided dynamically.
 Keep R1 ints in memory in symmetry-blocked form, NReq=1164839.
 IVT=      256315 IEndB=      256315 NGot=  2097152000 MDV=  2096881987
 LenX=  2096881987 LenY=  2096880921
 Requested convergence on RMS density matrix=1.00D-08 within 500 cycles.
 Requested convergence on MAX density matrix=1.00D-06.
 Requested convergence on             energy=1.00D-06.
 No special actions if energy rises.
 FoFCou: FMM=F IPFlag=           0 FMFlag=           0 FMFlg1=           0
         NFxFlg=           0 DoJE=F BraDBF=F KetDBF=F FulRan=T
         wScrn=  0.000000 ICntrl=     600 IOpCl=  0 I1Cent=           0 NGrid=           0
         NMat0=    1 NMatS0=    300 NMatT0=    0 NMatD0=    1 NMtDS0=    0 NMtDT0=    0
 Petite list used in FoFCou.

 Cycle   1  Pass 1  IDiag  1:
 E= -76.3582875900072    
 DIIS: error= 7.63D-04 at cycle   1 NSaved=   1.
 NSaved= 1 IEnMin= 1 EnMin= -76.3582875900072     IErMin= 1 ErrMin= 7.63D-04
 ErrMax= 7.63D-04  0.00D+00 EMaxC= 1.00D-01 BMatC= 2.26D-05 BMatP= 2.26D-05
 IDIUse=3 WtCom= 9.92D-01 WtEn= 7.63D-03
 Coeff-Com:  0.100D+01
 Coeff-En:   0.100D+01
 Coeff:      0.100D+01
 Gap=     0.949 Goal=   None    Shift=    0.000
 RMSDP=3.71D-04 MaxDP=2.74D-03              OVMax= 2.58D-03

 Cycle   2  Pass 1  IDiag  1:
 E= -76.3583137788131     Delta-E=       -0.000026188806 Rises=F Damp=F
 DIIS: error= 4.02D-04 at cycle   2 NSaved=   2.
 NSaved= 2 IEnMin= 2 EnMin= -76.3583137788131     IErMin= 2 ErrMin= 4.02D-04
 ErrMax= 4.02D-04  0.00D+00 EMaxC= 1.00D-01 BMatC= 2.65D-06 BMatP= 2.26D-05
 IDIUse=3 WtCom= 9.96D-01 WtEn= 4.02D-03
 Coeff-Com:  0.125D+00 0.875D+00
 Coeff-En:   0.000D+00 0.100D+01
 Coeff:      0.125D+00 0.875D+00
 Gap=     0.337 Goal=   None    Shift=    0.000
 RMSDP=7.92D-05 MaxDP=7.36D-04 DE=-2.62D-05 OVMax= 7.01D-04

 Cycle   3  Pass 1  IDiag  1:
 E= -76.3583136870444     Delta-E=        0.000000091769 Rises=F Damp=F
 DIIS: error= 3.94D-04 at cycle   3 NSaved=   3.
 NSaved= 3 IEnMin= 2 EnMin= -76.3583137788131     IErMin= 3 ErrMin= 3.94D-04
 ErrMax= 3.94D-04  0.00D+00 EMaxC= 1.00D-01 BMatC= 2.77D-06 BMatP= 2.65D-06
 IDIUse=3 WtCom= 9.96D-01 WtEn= 3.94D-03
 Coeff-Com: -0.151D-01 0.510D+00 0.505D+00
 Coeff-En:   0.000D+00 0.511D+00 0.489D+00
 Coeff:     -0.150D-01 0.510D+00 0.505D+00
 Gap=     0.336 Goal=   None    Shift=    0.000
 RMSDP=4.58D-05 MaxDP=3.82D-04 DE= 9.18D-08 OVMax= 4.31D-04

 Cycle   4  Pass 1  IDiag  1:
 E= -76.3583156627070     Delta-E=       -0.000001975663 Rises=F Damp=F
 DIIS: error= 2.50D-05 at cycle   4 NSaved=   4.
 NSaved= 4 IEnMin= 4 EnMin= -76.3583156627070     IErMin= 4 ErrMin= 2.50D-05
 ErrMax= 2.50D-05  0.00D+00 EMaxC= 1.00D-01 BMatC= 1.44D-08 BMatP= 2.65D-06
 IDIUse=1 WtCom= 1.00D+00 WtEn= 0.00D+00
 Coeff-Com: -0.724D-02 0.108D+00 0.143D+00 0.756D+00
 Coeff:     -0.724D-02 0.108D+00 0.143D+00 0.756D+00
 Gap=     0.337 Goal=   None    Shift=    0.000
 RMSDP=2.87D-06 MaxDP=2.14D-05 DE=-1.98D-06 OVMax= 3.56D-05

 Cycle   5  Pass 1  IDiag  1:
 E= -76.3583156728439     Delta-E=       -0.000000010137 Rises=F Damp=F
 DIIS: error= 1.15D-06 at cycle   5 NSaved=   5.
 NSaved= 5 IEnMin= 5 EnMin= -76.3583156728439     IErMin= 5 ErrMin= 1.15D-06
 ErrMax= 1.15D-06  0.00D+00 EMaxC= 1.00D-01 BMatC= 3.55D-11 BMatP= 1.44D-08
 IDIUse=1 WtCom= 1.00D+00 WtEn= 0.00D+00
 Coeff-Com:  0.127D-03-0.739D-02-0.466D-02 0.129D-01 0.999D+00
 Coeff:      0.127D-03-0.739D-02-0.466D-02 0.129D-01 0.999D+00
 Gap=     0.337 Goal=   None    Shift=    0.000
 RMSDP=3.16D-07 MaxDP=2.25D-06 DE=-1.01D-08 OVMax= 3.75D-06

 Cycle   6  Pass 1  IDiag  1:
 E= -76.3583156728819     Delta-E=       -0.000000000038 Rises=F Damp=F
 DIIS: error= 9.46D-08 at cycle   6 NSaved=   6.
 NSaved= 6 IEnMin= 6 EnMin= -76.3583156728819     IErMin= 6 ErrMin= 9.46D-08
 ErrMax= 9.46D-08  0.00D+00 EMaxC= 1.00D-01 BMatC= 1.40D-13 BMatP= 3.55D-11
 IDIUse=1 WtCom= 1.00D+00 WtEn= 0.00D+00
 Coeff-Com:  0.309D-04-0.402D-03-0.407D-03-0.279D-02-0.191D-01 0.102D+01
 Coeff:      0.309D-04-0.402D-03-0.407D-03-0.279D-02-0.191D-01 0.102D+01
 Gap=     0.337 Goal=   None    Shift=    0.000
 RMSDP=2.86D-08 MaxDP=1.67D-07 DE=-3.80D-11 OVMax= 3.97D-07

 Cycle   7  Pass 1  IDiag  1:
 E= -76.3583156728822     Delta-E=       -0.000000000000 Rises=F Damp=F
 DIIS: error= 1.57D-08 at cycle   7 NSaved=   7.
 NSaved= 7 IEnMin= 7 EnMin= -76.3583156728822     IErMin= 7 ErrMin= 1.57D-08
 ErrMax= 1.57D-08  0.00D+00 EMaxC= 1.00D-01 BMatC= 2.39D-15 BMatP= 1.40D-13
 IDIUse=1 WtCom= 1.00D+00 WtEn= 0.00D+00
 Coeff-Com: -0.613D-06 0.468D-04 0.372D-04-0.296D-03-0.684D-02-0.327D-01
 Coeff-Com:  0.104D+01
 Coeff:     -0.613D-06 0.468D-04 0.372D-04-0.296D-03-0.684D-02-0.327D-01
 Coeff:      0.104D+01
 Gap=     0.337 Goal=   None    Shift=    0.000
 RMSDP=2.76D-09 MaxDP=2.12D-08 DE=-2.70D-13 OVMax= 3.07D-08

 SCF Done:  E(RB3LYP) =  -76.3583156729     A.U. after    7 cycles
            NFock=  7  Conv=0.28D-08     -V/T= 2.0069
 KE= 7.583671986416D+01 PE=-1.988032634927D+02 EE= 3.749853304623D+01
 Leave Link  502 at Thu Jan 11 16:00:38 2018, MaxMem=  2097152000 cpu:         1.6
 (Enter /home/chemsoft/gaussian/g09e01/g09/l508.exe)
 QCSCF skips out because SCF is already converged.
 Leave Link  508 at Thu Jan 11 16:00:38 2018, MaxMem=  2097152000 cpu:         0.0
 (Enter /home/chemsoft/gaussian/g09e01/g09/l701.exe)
 Compute integral first derivatives.
 ... and contract with generalized density number  0.
   4 Symmetry operations used in ECPInt.
 ECPInt:  NShTT=      78 NPrTT=     272 LenC2=      79 LenP2D=     271.
 LDataN:  DoStor=T MaxTD1= 5 Len=  102
 Leave Link  701 at Thu Jan 11 16:00:38 2018, MaxMem=  2097152000 cpu:         0.9
 (Enter /home/chemsoft/gaussian/g09e01/g09/l702.exe)
 L702 exits ... SP integral derivatives will be done elsewhere.
 Leave Link  702 at Thu Jan 11 16:00:38 2018, MaxMem=  2097152000 cpu:         0.2
 (Enter /home/chemsoft/gaussian/g09e01/g09/l703.exe)
 Compute integral first derivatives, UseDBF=F ICtDFT=           0.
 Integral derivatives from FoFJK, PRISM(SPDF).
 Calling FoFJK, ICntrl=      2127 FMM=F ISym2X=1 I1Cent= 0 IOpClX= 0 NMat=1 NMatS=1 NMatT=0.
 FoFJK:  IHMeth= 1 ICntrl=    2127 DoSepK=F KAlg= 0 I1Cent=   0 FoldK=F
 IRaf=         0 NMat=   1 IRICut=       1 DoRegI=T DoRafI=F ISym2E= 1.
 FoFCou: FMM=F IPFlag=           0 FMFlag=      100000 FMFlg1=         800
         NFxFlg=           0 DoJE=F BraDBF=F KetDBF=F FulRan=T
         wScrn=  0.000000 ICntrl=    2127 IOpCl=  0 I1Cent=           0 NGrid=           0
         NMat0=    1 NMatS0=      1 NMatT0=    0 NMatD0=    1 NMtDS0=    0 NMtDT0=    0
 Petite list used in FoFCou.
 Leave Link  703 at Thu Jan 11 16:00:38 2018, MaxMem=  2097152000 cpu:         1.1
 (Enter /home/chemsoft/gaussian/g09e01/g09/l716.exe)
 Dipole        = 2.78391153D-17 0.00000000D+00-7.88647030D-01
 ***** Axes restored to original set *****
 -------------------------------------------------------------------
 Center     Atomic                   Forces (Hartrees/Bohr)
 Number     Number              X              Y              Z
 -------------------------------------------------------------------
      1        8          -0.000160548    0.000000000   -0.000113525
      2        1          -0.000008156   -0.000000000    0.000181820
      3        1           0.000168704   -0.000000000   -0.000068296
 -------------------------------------------------------------------
 Cartesian Forces:  Max     0.000181820 RMS     0.000107968
 Leave Link  716 at Thu Jan 11 16:00:38 2018, MaxMem=  2097152000 cpu:         0.2
 (Enter /home/chemsoft/gaussian/g09e01/g09/l103.exe)

 GradGradGradGradGradGradGradGradGradGradGradGradGradGradGradGradGradGrad
 Berny optimization.
 Using GEDIIS/GDIIS optimizer.
 FormGI is forming the generalized inverse of G from B-inverse, IUseBI=4.
 Internal  Forces:  Max     0.000181084 RMS     0.000149104
 Search for a local minimum.
 Step number   3 out of a maximum of  100
 All quantities printed in internal units (Hartrees-Bohrs-Radians)
 RMS Force = .14910D-03 SwitMx=.10000D-02 MixMth= 2
 Mixed Optimization -- En-DIIS/RFO-DIIS
 Update second derivatives using D2CorX and points    1    2    3
 DE= -4.70D-05 DEPred=-4.73D-05 R= 9.93D-01
 TightC=F SS=  1.41D+00  RLast= 2.11D-02 DXNew= 5.0454D-01 6.3252D-02
 Trust test= 9.93D-01 RLast= 2.11D-02 DXMaxT set to 3.00D-01
 The second derivative matrix:
                          R1        R2        A1
           R1           0.53996
           R2          -0.03685   0.53996
           A1           0.02093   0.02093   0.15325
 ITU=  1  1  0
 Use linear search instead of GDIIS.
     Eigenvalues ---    0.15076   0.50559   0.57681
 RFO step:  Lambda=-9.41301020D-08 EMin= 1.50760664D-01
 Quartic linear search produced a step of  0.02064.
 Iteration  1 RMS(Cart)=  0.00028973 RMS(Int)=  0.00000001
 Iteration  2 RMS(Cart)=  0.00000001 RMS(Int)=  0.00000000
 ITry= 1 IFail=0 DXMaxC= 3.09D-04 DCOld= 1.00D+10 DXMaxT= 3.00D-01 DXLimC= 3.00D+00 Rises=F
 ClnCor:  largest displacement from symmetrization is 8.82D-15 for atom     3.
 Variable       Old X    -DE/DX   Delta X   Delta X   Delta X     New X
                                 (Linear)    (Quad)   (Total)
    R1        1.82646   0.00018   0.00014   0.00021   0.00036   1.82682
    R2        1.82646   0.00018   0.00014   0.00021   0.00036   1.82682
    A1        1.79921   0.00003  -0.00039   0.00051   0.00012   1.79933
         Item               Value     Threshold  Converged?
 Maximum Force            0.000181     0.000450     YES
 RMS     Force            0.000149     0.000300     YES
 Maximum Displacement     0.000309     0.001800     YES
 RMS     Displacement     0.000290     0.001200     YES
 Predicted change in Energy=-6.628358D-08
 Optimization completed.
    -- Stationary point found.
                           ----------------------------
                           !   Optimized Parameters   !
                           ! (Angstroms and Degrees)  !
 --------------------------                            --------------------------
 ! Name  Definition              Value          Derivative Info.                !
 --------------------------------------------------------------------------------
 ! R1    R(1,2)                  0.9665         -DE/DX =    0.0002              !
 ! R2    R(1,3)                  0.9665         -DE/DX =    0.0002              !
 ! A1    A(2,1,3)              103.0869         -DE/DX =    0.0                 !
 --------------------------------------------------------------------------------
 Lowest energy point so far.  Saving SCF results.
 GradGradGradGradGradGradGradGradGradGradGradGradGradGradGradGradGradGrad

 Largest change from initial coordinates is atom    2       0.046 Angstoms.
 Leave Link  103 at Thu Jan 11 16:00:38 2018, MaxMem=  2097152000 cpu:         0.0
 (Enter /home/chemsoft/gaussian/g09e01/g09/l202.exe)
                          Input orientation:                          
 ---------------------------------------------------------------------
 Center     Atomic      Atomic             Coordinates (Angstroms)
 Number     Number       Type             X           Y           Z
 ---------------------------------------------------------------------
      1          8           0       -0.028640    0.000000   -0.020252
      2          1           0        0.025178   -0.000000    0.944770
      3          1           0        0.899132    0.000000   -0.291181
 ---------------------------------------------------------------------
                    Distance matrix (angstroms):
                    1          2          3
     1  O    0.000000
     2  H    0.966522   0.000000
     3  H    0.966522   1.513727   0.000000
 Stoichiometry    H2O
 Framework group  C2V[C2(O),SGV(H2)]
 Deg. of freedom     2
 Full point group                 C2V     NOp   4
 RotChk:  IX=3 Diff= 1.07D-15
 Largest Abelian subgroup         C2V     NOp   4
 Largest concise Abelian subgroup C2      NOp   2
                         Standard orientation:                         
 ---------------------------------------------------------------------
 Center     Atomic      Atomic             Coordinates (Angstroms)
 Number     Number       Type             X           Y           Z
 ---------------------------------------------------------------------
      1          8           0        0.000000   -0.000000    0.120220
      2          1           0        0.000000   -0.756864   -0.480880
      3          1           0        0.000000    0.756864   -0.480880
 ---------------------------------------------------------------------
 Rotational constants (GHZ):    781.3645290    437.6901065    280.5415885
 Leave Link  202 at Thu Jan 11 16:00:38 2018, MaxMem=  2097152000 cpu:         0.0
 (Enter /home/chemsoft/gaussian/g09e01/g09/l601.exe)
 Copying SCF densities to generalized density rwf, IOpCl= 0 IROHF=0.

 **********************************************************************

            Population analysis using the SCF density.

 **********************************************************************

 Orbital symmetries:
       Occupied  (A1) (A1) (B2) (A1) (B1)
       Virtual   (A1) (B2) (B2) (A1) (A1) (B1) (B2) (A1) (A2) (A1)
                 (B1) (B2) (B2) (A1) (B1) (A2) (A1) (A1) (B2)
 The electronic state is 1-A1.
 Alpha  occ. eigenvalues --  -19.11963  -0.97988  -0.51167  -0.36793  -0.29168
 Alpha virt. eigenvalues --    0.04484   0.12394   0.55518   0.62069   0.91735
 Alpha virt. eigenvalues --    0.92035   1.00686   1.09516   1.34773   1.39526
 Alpha virt. eigenvalues --    1.54217   1.78688   2.19917   2.24633   2.96068
 Alpha virt. eigenvalues --    2.99682   3.18500   3.48367   3.82065
     Molecular Orbital Coefficients:
                           1         2         3         4         5
                        (A1)--O   (A1)--O   (B2)--O   (A1)--O   (B1)--O
     Eigenvalues --   -19.11963  -0.97988  -0.51167  -0.36793  -0.29168
   1 1   O  1S          0.98881   0.27638   0.00000   0.11147   0.00000
   2        2S         -0.03951   0.55183   0.00000   0.21998   0.00000
   3        3S          0.01399   0.25849   0.00000   0.37046   0.00000
   4        4PX         0.00000   0.00000   0.00000   0.00000   0.63820
   5        4PY         0.00000   0.00000   0.50512   0.00000   0.00000
   6        4PZ         0.00309  -0.12190   0.00000   0.54563   0.00000
   7        5PX         0.00000   0.00000   0.00000   0.00000   0.49031
   8        5PY         0.00000   0.00000   0.20464   0.00000   0.00000
   9        5PZ        -0.00008   0.00010   0.00000   0.34091   0.00000
  10        6D 0       -0.00018   0.00291   0.00000  -0.01852   0.00000
  11        6D+1        0.00000   0.00000   0.00000   0.00000  -0.01962
  12        6D-1        0.00000   0.00000  -0.02311   0.00000   0.00000
  13        6D+2        0.00129  -0.00538   0.00000   0.00089   0.00000
  14        6D-2        0.00000   0.00000   0.00000   0.00000   0.00000
  15 2   H  1S          0.00239   0.20461  -0.32749  -0.20183   0.00000
  16        2S         -0.00233   0.01411  -0.10797  -0.06659   0.00000
  17        3PX         0.00000   0.00000   0.00000   0.00000   0.03042
  18        3PY         0.00252   0.03140  -0.01402  -0.02500   0.00000
  19        3PZ         0.00205   0.01529  -0.02615   0.01326   0.00000
  20 3   H  1S          0.00239   0.20461   0.32749  -0.20183   0.00000
  21        2S         -0.00233   0.01411   0.10797  -0.06659   0.00000
  22        3PX         0.00000   0.00000   0.00000   0.00000   0.03042
  23        3PY        -0.00252  -0.03140  -0.01402   0.02500   0.00000
  24        3PZ         0.00205   0.01529   0.02615   0.01326   0.00000
                           6         7         8         9        10
                        (A1)--V   (B2)--V   (B2)--V   (A1)--V   (A1)--V
     Eigenvalues --     0.04484   0.12394   0.55518   0.62069   0.91735
   1 1   O  1S          0.10224   0.00000   0.00000  -0.10578  -0.14322
   2        2S          0.16533   0.00000   0.00000  -0.39263  -0.61358
   3        3S          0.96266   0.00000   0.00000   0.44503   0.12441
   4        4PX         0.00000   0.00000   0.00000   0.00000   0.00000
   5        4PY         0.00000   0.36979   0.29411   0.00000   0.00000
   6        4PZ        -0.24711   0.00000   0.00000   0.38707  -0.77539
   7        5PX         0.00000   0.00000   0.00000   0.00000   0.00000
   8        5PY         0.00000   0.60653   0.37484   0.00000   0.00000
   9        5PZ        -0.34380   0.00000   0.00000  -0.01488   1.14905
  10        6D 0        0.00904   0.00000   0.00000   0.00108  -0.00708
  11        6D+1        0.00000   0.00000   0.00000   0.00000   0.00000
  12        6D-1        0.00000  -0.00864   0.10168   0.00000   0.00000
  13        6D+2       -0.00404   0.00000   0.00000  -0.09335  -0.01574
  14        6D-2        0.00000   0.00000   0.00000   0.00000   0.00000
  15 2   H  1S         -0.11218   0.10491   0.96151   0.83627   0.39711
  16        2S         -0.82540   1.29986  -0.84482  -0.63875  -0.01228
  17        3PX         0.00000   0.00000   0.00000   0.00000   0.00000
  18        3PY         0.00256  -0.00064  -0.04405  -0.20687   0.02500
  19        3PZ        -0.00140  -0.00480  -0.10858  -0.05020   0.13634
  20 3   H  1S         -0.11218  -0.10491  -0.96151   0.83627   0.39711
  21        2S         -0.82540  -1.29986   0.84482  -0.63875  -0.01228
  22        3PX         0.00000   0.00000   0.00000   0.00000   0.00000
  23        3PY        -0.00256  -0.00064  -0.04405   0.20687  -0.02500
  24        3PZ        -0.00140   0.00480   0.10858  -0.05020   0.13634
                          11        12        13        14        15
                        (B1)--V   (B2)--V   (A1)--V   (A2)--V   (A1)--V
     Eigenvalues --     0.92035   1.00686   1.09516   1.34773   1.39526
   1 1   O  1S          0.00000   0.00000  -0.24513   0.00000  -0.08396
   2        2S          0.00000   0.00000  -1.54291   0.00000  -0.69644
   3        3S          0.00000   0.00000   2.76148   0.00000   1.67425
   4        4PX        -0.96417   0.00000   0.00000   0.00000   0.00000
   5        4PY         0.00000  -0.77715   0.00000   0.00000   0.00000
   6        4PZ         0.00000   0.00000   0.09955   0.00000   0.09682
   7        5PX         1.01941   0.00000   0.00000   0.00000   0.00000
   8        5PY         0.00000   1.73590   0.00000   0.00000   0.00000
   9        5PZ         0.00000   0.00000  -0.63310   0.00000  -1.19291
  10        6D 0        0.00000   0.00000   0.04379   0.00000  -0.19385
  11        6D+1        0.00266   0.00000   0.00000   0.00000   0.00000
  12        6D-1        0.00000  -0.02180   0.00000   0.00000   0.00000
  13        6D+2        0.00000   0.00000   0.05331   0.00000   0.01970
  14        6D-2        0.00000   0.00000   0.00000  -0.17345   0.00000
  15 2   H  1S          0.00000   0.34419  -0.52464   0.00000  -0.73572
  16        2S          0.00000   0.81401  -0.50684   0.00000  -0.18372
  17        3PX         0.02219   0.00000   0.00000   0.66799   0.00000
  18        3PY         0.00000   0.22187   0.03807   0.00000  -0.44480
  19        3PZ         0.00000   0.12454  -0.30967   0.00000   0.42943
  20 3   H  1S          0.00000  -0.34419  -0.52464   0.00000  -0.73572
  21        2S          0.00000  -0.81401  -0.50684   0.00000  -0.18372
  22        3PX         0.02219   0.00000   0.00000  -0.66799   0.00000
  23        3PY         0.00000   0.22187  -0.03807   0.00000   0.44480
  24        3PZ         0.00000  -0.12454  -0.30967   0.00000   0.42943
                          16        17        18        19        20
                        (B1)--V   (B2)--V   (B2)--V   (A1)--V   (B1)--V
     Eigenvalues --     1.54217   1.78688   2.19917   2.24633   2.96068
   1 1   O  1S          0.00000   0.00000   0.00000   0.14928   0.00000
   2        2S          0.00000   0.00000   0.00000   0.73041   0.00000
   3        3S          0.00000   0.00000   0.00000   0.70313   0.00000
   4        4PX        -0.00013   0.00000   0.00000   0.00000   0.01637
   5        4PY         0.00000  -0.00830   0.72747   0.00000   0.00000
   6        4PZ         0.00000   0.00000   0.00000  -0.58754   0.00000
   7        5PX        -0.58020   0.00000   0.00000   0.00000  -0.30060
   8        5PY         0.00000   0.81176   0.12675   0.00000   0.00000
   9        5PZ         0.00000   0.00000   0.00000  -0.22005   0.00000
  10        6D 0        0.00000   0.00000   0.00000  -0.08516   0.00000
  11        6D+1       -0.20887   0.00000   0.00000   0.00000   1.02907
  12        6D-1        0.00000   0.02965   0.16943   0.00000   0.00000
  13        6D+2        0.00000   0.00000   0.00000   0.27901   0.00000
  14        6D-2        0.00000   0.00000   0.00000   0.00000   0.00000
  15 2   H  1S          0.00000   0.33799   0.19809  -0.40664   0.00000
  16        2S          0.00000   0.09212   0.33662  -0.20596   0.00000
  17        3PX         0.73272   0.00000   0.00000   0.00000   0.41160
  18        3PY         0.00000  -0.45541   0.68674  -0.70883   0.00000
  19        3PZ         0.00000   0.67610   0.52217  -0.51577   0.00000
  20 3   H  1S          0.00000  -0.33799  -0.19809  -0.40664   0.00000
  21        2S          0.00000  -0.09212  -0.33662  -0.20596   0.00000
  22        3PX         0.73272   0.00000   0.00000   0.00000   0.41160
  23        3PY         0.00000  -0.45541   0.68674   0.70883   0.00000
  24        3PZ         0.00000  -0.67610  -0.52217  -0.51577   0.00000
                          21        22        23        24
                        (A2)--V   (A1)--V   (A1)--V   (B2)--V
     Eigenvalues --     2.99682   3.18500   3.48367   3.82065
   1 1   O  1S          0.00000  -0.00313   0.07371   0.00000
   2        2S          0.00000  -0.09565   0.12569   0.00000
   3        3S          0.00000   0.44576   1.92567   0.00000
   4        4PX         0.00000   0.00000   0.00000   0.00000
   5        4PY         0.00000   0.00000   0.00000  -0.46256
   6        4PZ         0.00000   0.00417  -0.37760   0.00000
   7        5PX         0.00000   0.00000   0.00000   0.00000
   8        5PY         0.00000   0.00000   0.00000  -1.10425
   9        5PZ         0.00000  -0.50360  -0.93556   0.00000
  10        6D 0        0.00000   1.06015   0.20238   0.00000
  11        6D+1        0.00000   0.00000   0.00000   0.00000
  12        6D-1        0.00000   0.00000   0.00000   1.33606
  13        6D+2        0.00000   0.23423  -1.12866   0.00000
  14        6D-2        1.05174   0.00000   0.00000   0.00000
  15 2   H  1S          0.00000  -0.25685  -1.14709  -1.03693
  16        2S          0.00000  -0.04601  -0.23797  -0.27236
  17        3PX         0.37985   0.00000   0.00000   0.00000
  18        3PY         0.00000  -0.34691  -0.62304  -0.61407
  19        3PZ         0.00000   0.33743  -0.48562  -0.52083
  20 3   H  1S          0.00000  -0.25685  -1.14709   1.03693
  21        2S          0.00000  -0.04601  -0.23797   0.27236
  22        3PX        -0.37985   0.00000   0.00000   0.00000
  23        3PY         0.00000   0.34691   0.62304  -0.61407
  24        3PZ         0.00000   0.33743  -0.48562   0.52083
          Condensed to atoms (all electrons):
               1          2          3
     1  O    7.645704   0.324311   0.324311
     2  H    0.324311   0.561528  -0.033003
     3  H    0.324311  -0.033003   0.561528
 Mulliken charges:
               1
     1  O   -0.294327
     2  H    0.147163
     3  H    0.147163
 Sum of Mulliken charges =  -0.00000
 Mulliken charges with hydrogens summed into heavy atoms:
               1
     1  O   -0.000000
 Electronic spatial extent (au):  <R**2>=             19.0124
 Charge=             -0.0000 electrons
 Dipole moment (field-independent basis, Debye):
    X=              0.0000    Y=             -0.0000    Z=             -2.0045  Tot=              2.0045
 Quadrupole moment (field-independent basis, Debye-Ang):
   XX=             -7.0028   YY=             -4.3530   ZZ=             -5.9369
   XY=              0.0000   XZ=             -0.0000   YZ=              0.0000
 Traceless Quadrupole moment (field-independent basis, Debye-Ang):
   XX=             -1.2386   YY=              1.4112   ZZ=             -0.1727
   XY=              0.0000   XZ=             -0.0000   YZ=              0.0000
 Octapole moment (field-independent basis, Debye-Ang**2):
  XXX=             -0.0000  YYY=             -0.0000  ZZZ=             -1.0658  XYY=              0.0000
  XXY=             -0.0000  XXZ=             -0.2769  XZZ=             -0.0000  YZZ=              0.0000
  YYZ=             -1.1063  XYZ=             -0.0000
 Hexadecapole moment (field-independent basis, Debye-Ang**3):
 XXXX=             -4.8413 YYYY=             -6.1989 ZZZZ=             -6.1578 XXXY=             -0.0000
 XXXZ=              0.0000 YYYX=             -0.0000 YYYZ=              0.0000 ZZZX=              0.0000
 ZZZY=             -0.0000 XXYY=             -2.0914 XXZZ=             -1.8879 YYZZ=             -1.7270
 XXYZ=              0.0000 YYXZ=             -0.0000 ZZXY=             -0.0000
 N-N= 9.109694909413D+00 E-N=-1.988032637153D+02  KE= 7.583671986416D+01
 Symmetry A1   KE= 6.766508718434D+01
 Symmetry A2   KE= 4.289747831602D-35
 Symmetry B1   KE= 4.631255573727D+00
 Symmetry B2   KE= 3.540377106100D+00
 Orbital energies and kinetic energies (alpha):
                                 1                 2
   1         (A1)--O         -19.119634         28.761446
   2         (A1)--O          -0.979879          2.804351
   3         (B2)--O          -0.511666          1.770189
   4         (A1)--O          -0.367933          2.266746
   5         (B1)--O          -0.291681          2.315628
   6         (A1)--V           0.044836          0.953777
   7         (B2)--V           0.123938          1.031955
   8         (B2)--V           0.555184          1.905449
   9         (A1)--V           0.620687          2.459891
  10         (A1)--V           0.917349          3.451370
  11         (B1)--V           0.920352          3.655722
  12         (B2)--V           1.006862          2.912579
  13         (A1)--V           1.095158          3.332497
  14         (A2)--V           1.347731          2.135002
  15         (A1)--V           1.395262          2.365270
  16         (B1)--V           1.542171          2.295180
  17         (B2)--V           1.786884          2.481571
  18         (B2)--V           2.199171          4.078287
  19         (A1)--V           2.246333          4.437515
  20         (B1)--V           2.960678          4.457780
  21         (A2)--V           2.996819          4.530189
  22         (A1)--V           3.184998          4.737805
  23         (A1)--V           3.483665          5.482730
  24         (B2)--V           3.820649          5.851692
 Total kinetic energy from orbitals= 7.583671986416D+01
 No NMR shielding tensors so no spin-rotation constants.
 Leave Link  601 at Thu Jan 11 16:00:39 2018, MaxMem=  2097152000 cpu:         0.7
 (Enter /home/chemsoft/gaussian/g09e01/g09/l9999.exe)

 Test job not archived.
 1\1\GINC-LENOX07\FOpt\RB3LYP\def2SVP\H2O1\MARTIN\11-Jan-2018\0\\#P B3L
 YP/def2SVP opt(MaxCycle=100) scf(xqc,MaxConventionalCycle=500) int(ult
 rafinegrid) gfinput gfoldprint iop(6/7=3) symmetry(loose)\\Water B3LYP
 /def2-SVP\\0,1\O,-0.0286403374,0.,-0.0202518977\H,0.0251783755,0.,0.94
 47701967\H,0.8991319745,0.,-0.2911811017\\Version=ES64L-G09RevE.01\Sta
 te=1-A1\HF=-76.3583157\RMSD=2.757e-09\RMSF=1.080e-04\Dipole=0.6439266,
 0.,0.455327\Quadrupole=0.2641588,-0.9208474,0.6566886,0.,-0.5551288,0.
 \PG=C02V [C2(O1),SGV(H2)]\\@


 THE MOST INCOMPREHENSIBLE THING ABOUT THE WORLD
 IS THAT IT IS COMPREHENSIBLE. -- A. EINSTEIN
 Job cpu time:       0 days  0 hours  0 minutes 24.3 seconds.
 File lengths (MBytes):  RWF=      5 Int=      0 D2E=      0 Chk=      1 Scr=      1
 Normal termination of Gaussian 09 at Thu Jan 11 16:00:39 2018.
