Ammonia DF-BP86/def2-SVP                                                
FOpt      UBP86                                                       def2SVP/W06         
Number of atoms                            I                1
Info1-9                                    I   N=           9
          17          16           0           0           0         101
           2          18         402
Full Title                                 C   N=           2
Ammonia DF-BP86/def2-SVP
Route                                      C   N=          14
#P BP86/def2SVP/W06 DenFit opt(MaxCycle=100) scf(xqc,MaxConv
entionalCycle=500) int(ultrafinegrid) gfinput gfoldprint iop
(6/7=3) symmetry(loose) pop=full pop=nbo6       
Charge                                     I                0
Multiplicity                               I                4
Number of electrons                        I                7
Number of alpha electrons                  I                5
Number of beta electrons                   I                2
Number of basis functions                  I               14
Number of independent functions            I               14
Number of point charges in /Mol/           I                0
Number of translation vectors              I                0
Atomic numbers                             I   N=           1
           7
Nuclear charges                            R   N=           1
  7.00000000E+00
Current cartesian coordinates              R   N=           3
  0.00000000E+00  0.00000000E+00  0.00000000E+00
Number of symbols in /Mol/                 I                0
Force Field                                I                0
Atom Types                                 C   N=           1
            
Int Atom Types                             I   N=           1
           0
MM charges                                 R   N=           1
  0.00000000E+00
Integer atomic weights                     I   N=           1
          14
Real atomic weights                        R   N=           1
  1.40030740E+01
Atom fragment info                         I   N=           1
           0
Atom residue num                           I   N=           1
           0
Nuclear spins                              I   N=           1
           2
Nuclear ZEff                               R   N=           1
 -4.55000000E+00
Nuclear ZNuc                               R   N=           1
  7.00000000E+00
Nuclear QMom                               R   N=           1
  2.04400000E+00
Nuclear GFac                               R   N=           1
  4.03761000E-01
MicOpt                                     I   N=           1
          -1
Number of residues                         I                0
Number of secondary structures             I                0
SymInf integers                            I   N=          26
           1           8           1           1           1           1
          -1          -1          -1           1          -1          -1
          -1           1          -1          -1          -1          -1
           1           1           1          -1           1           1
           1          -1
RotTr to input orientation                 R   N=          12
  0.00000000E+00  0.00000000E+00 -1.00000000E+00  0.00000000E+00  1.00000000E+00
  0.00000000E+00  1.00000000E+00  0.00000000E+00  0.00000000E+00  0.00000000E+00
  0.00000000E+00  0.00000000E+00
Number of contracted shells                I                6
Number of primitive shells                 I               12
Pure/Cartesian d shells                    I                0
Pure/Cartesian f shells                    I                0
Highest angular momentum                   I                2
Largest degree of contraction              I                5
Shell types                                I   N=           6
           0           0           0           1           1          -2
Number of primitives per shell             I   N=           6
           5           1           1           3           1           1
Shell to atom map                          I   N=           6
           1           1           1           1           1           1
Primitive exponents                        R   N=          12
  1.71284159E+03  2.57648127E+02  5.84582459E+01  1.61983679E+01  5.00526008E+00
  5.87318566E-01  1.87645923E-01  1.35714702E+01  2.92573729E+00  7.99277508E-01
  2.19543480E-01  1.00000000E+00
Contraction coefficients                   R   N=          12
 -5.44779958E-03 -4.06271746E-02 -1.81119623E-01 -4.68439756E-01 -4.46168463E-01
  1.00000000E+00  1.00000000E+00 -5.88481170E-02 -3.20246248E-01 -7.53282265E-01
  1.00000000E+00  1.00000000E+00
Coordinates of each shell                  R   N=          18
  0.00000000E+00  0.00000000E+00  0.00000000E+00  0.00000000E+00  0.00000000E+00
  0.00000000E+00  0.00000000E+00  0.00000000E+00  0.00000000E+00  0.00000000E+00
  0.00000000E+00  0.00000000E+00  0.00000000E+00  0.00000000E+00  0.00000000E+00
  0.00000000E+00  0.00000000E+00  0.00000000E+00
Density Number of contracted shells        I               15
Density Number of primitive shells         I               24
Density Pure/Cartesian d shells            I                0
Density Pure/Cartesian f shells            I                0
Density Highest angular momentum           I                4
Density Largest degree of contraction      I                7
Density Shell types                        I   N=          15
           0           0           0           0           0           0
           1           1           1           1          -2          -2
          -2          -3          -4
Density Number of primitives per shell     I   N=          15
           7           1           1           1           1           1
           2           1           1           1           2           1
           1           2           1
Density Shell to atom map                  I   N=          15
           1           1           1           1           1           1
           1           1           1           1           1           1
           1           1           1
Density Primitive exponents                R   N=          24
  2.54294018E+03  1.02954730E+03  4.24905355E+02  1.78457371E+02  7.61362742E+01
  3.29338653E+01  1.44155436E+01  6.37188910E+00  2.83817420E+00  1.27117930E+00
  5.71240700E-01  2.56988700E-01  1.78975990E+01  6.53463190E+00  2.35236450E+00
  8.39737700E-01  2.98933500E-01  7.69098700E+00  2.30449720E+00  8.40398700E-01
  3.30379700E-01  2.33310760E+00  8.44613700E-01  1.40377000E+00
Density Contraction coefficients           R   N=          24
  1.57267989E-03  3.97704448E-03  1.95376611E-02  7.47626441E-02  2.18976743E-01
  4.21671880E-01  2.96402909E-01 -1.00000000E+00  1.00000000E+00  1.00000000E+00
  1.00000000E+00  1.00000000E+00 -1.19813247E+00  2.49356462E-01  1.00000000E+00
  1.00000000E+00  1.00000000E+00  9.91894048E-02  9.12612482E-01  1.00000000E+00
  1.00000000E+00  4.52107608E-01  6.08156234E-01 -1.00000000E+00
Density Coordinates of each shell          R   N=          45
  0.00000000E+00  0.00000000E+00  0.00000000E+00  0.00000000E+00  0.00000000E+00
  0.00000000E+00  0.00000000E+00  0.00000000E+00  0.00000000E+00  0.00000000E+00
  0.00000000E+00  0.00000000E+00  0.00000000E+00  0.00000000E+00  0.00000000E+00
  0.00000000E+00  0.00000000E+00  0.00000000E+00  0.00000000E+00  0.00000000E+00
  0.00000000E+00  0.00000000E+00  0.00000000E+00  0.00000000E+00  0.00000000E+00
  0.00000000E+00  0.00000000E+00  0.00000000E+00  0.00000000E+00  0.00000000E+00
  0.00000000E+00  0.00000000E+00  0.00000000E+00  0.00000000E+00  0.00000000E+00
  0.00000000E+00  0.00000000E+00  0.00000000E+00  0.00000000E+00  0.00000000E+00
  0.00000000E+00  0.00000000E+00  0.00000000E+00  0.00000000E+00  0.00000000E+00
Constraint Structure                       R   N=           3
  0.00000000E+00  0.00000000E+00  0.00000000E+00
Num ILSW                                   I              100
ILSW                                       I   N=         100
           1           0           0           0           2           0
           0           0           0           0         404          -1
           5           0           0           0           2           0
           0           0           0           0           1           0
           1           0           0           0           0           0
           0           0      100000           0          -1           0
           0           0           0           0           0           0
           0           0           0           1           0           0
           0           0           1           0           0           0
           0           0           4          41           0           0
           0           0           0           0           0           0
           0           0           0           1           0           0
           0           0           0           0           0           0
           0           0           0           0           0           0
           0           0           0           0           0           0
           0           0           0           0           0           0
           0           0           0           0
Num RLSW                                   I               41
RLSW                                       R   N=          41
  1.00000000E+00  1.00000000E+00  1.00000000E+00  1.00000000E+00  0.00000000E+00
  0.00000000E+00  0.00000000E+00  1.00000000E+00  0.00000000E+00  0.00000000E+00
  0.00000000E+00  0.00000000E+00  1.00000000E+00  0.00000000E+00  0.00000000E+00
  0.00000000E+00  0.00000000E+00  1.00000000E+00  0.00000000E+00  0.00000000E+00
  0.00000000E+00  0.00000000E+00  1.00000000E+00  0.00000000E+00  0.00000000E+00
  0.00000000E+00  0.00000000E+00  1.00000000E+00  0.00000000E+00  0.00000000E+00
  0.00000000E+00  0.00000000E+00  1.00000000E+00  0.00000000E+00  0.00000000E+00
  0.00000000E+00  0.00000000E+00  0.00000000E+00  1.00000000E+00  1.00000000E+00
  0.00000000E+00
ECP-MxAtEC                                 I           250000
ECP-MaxLECP                                I               10
ECP-MaxAtL                                 I          2250000
ECP-MxTECP                                 I         11250000
ECP-LenNCZ                                 I                0
ECP-KFirst                                 I   N=          10
           0           0           0           0           0           0
           0           0           0           0
ECP-KLast                                  I   N=          10
           0           0           0           0           0           0
           0           0           0           0
ECP-LMax                                   I   N=           1
           0
ECP-LPSkip                                 I   N=           1
           1
ECP-RNFroz                                 R   N=           1
  0.00000000E+00
ECP-NLP                                    I                0
ECP-CLP1                                   R      0.000000000000000E+00
ECP-CLP2                                   R      0.000000000000000E+00
ECP-ZLP                                    R      0.000000000000000E+00
MxBond                                     I                1
NBond                                      I   N=           1
           0
IBond                                      I   N=           1
           0
RBond                                      R   N=           1
  0.00000000E+00
Virial Ratio                               R      2.004830359506600E+00
SCF Energy                                 R     -5.452747406191986E+01
Total Energy                               R     -5.452747406191986E+01
S**2                                       R      3.752222789895604E+00
S**2 after annihilation                    R      3.750000000000000E+00
RMS Density                                R      6.486030542498694E-09
Job Status                                 I                1
Nuclear derivative order                   I                1
External E-field                           R   N=          35
  0.00000000E+00  0.00000000E+00  0.00000000E+00  0.00000000E+00  0.00000000E+00
  0.00000000E+00  0.00000000E+00  0.00000000E+00  0.00000000E+00  0.00000000E+00
  0.00000000E+00  0.00000000E+00  0.00000000E+00  0.00000000E+00  0.00000000E+00
  0.00000000E+00  0.00000000E+00  0.00000000E+00  0.00000000E+00  0.00000000E+00
  0.00000000E+00  0.00000000E+00  0.00000000E+00  0.00000000E+00  0.00000000E+00
  0.00000000E+00  0.00000000E+00  0.00000000E+00  0.00000000E+00  0.00000000E+00
  0.00000000E+00  0.00000000E+00  0.00000000E+00  0.00000000E+00  0.00000000E+00
IOpCl                                      I                1
IROHF                                      I                0
Alpha Orbital Energies                     R   N=          14
 -1.41180310E+01 -7.06084689E-01 -2.95119487E-01 -2.95119487E-01 -2.95119487E-01
  4.59527035E-01  6.08585501E-01  6.08585501E-01  6.08585501E-01  1.96323706E+00
  1.96323706E+00  1.96323706E+00  1.96323706E+00  1.96323706E+00
Beta Orbital Energies                      R   N=          14
 -1.40646764E+01 -5.44718199E-01 -1.39496800E-01 -1.39496800E-01 -1.39496800E-01
  5.60189070E-01  7.25156648E-01  7.25156648E-01  7.25156648E-01  2.13155128E+00
  2.13155128E+00  2.13155128E+00  2.13155128E+00  2.13155128E+00
Alpha MO coefficients                      R   N=         196
  9.89029004E-01 -3.81371838E-02  1.40592907E-02  0.00000000E+00  0.00000000E+00
  0.00000000E+00  0.00000000E+00  0.00000000E+00  0.00000000E+00 -2.06161249E-16
  0.00000000E+00  0.00000000E+00  4.30334308E-16  0.00000000E+00  3.16429854E-01
  6.87642075E-01  4.08985339E-01  0.00000000E+00  0.00000000E+00  0.00000000E+00
  0.00000000E+00  0.00000000E+00  0.00000000E+00  5.89798428E-17  0.00000000E+00
  0.00000000E+00  4.16668793E-17  0.00000000E+00  0.00000000E+00  0.00000000E+00
  0.00000000E+00  0.00000000E+00  0.00000000E+00  6.81085793E-01  0.00000000E+00
  0.00000000E+00 -4.57992793E-01  0.00000000E+00  0.00000000E+00  0.00000000E+00
  0.00000000E+00  0.00000000E+00  0.00000000E+00  0.00000000E+00  0.00000000E+00
  6.81085793E-01  0.00000000E+00  0.00000000E+00 -4.57992793E-01  0.00000000E+00
  0.00000000E+00  0.00000000E+00  0.00000000E+00  0.00000000E+00  0.00000000E+00
  0.00000000E+00  0.00000000E+00  0.00000000E+00  0.00000000E+00  0.00000000E+00
  6.81085793E-01  0.00000000E+00  0.00000000E+00 -4.57992793E-01  0.00000000E+00
  0.00000000E+00  0.00000000E+00  0.00000000E+00  0.00000000E+00  0.00000000E+00
 -3.04600368E-01 -1.61408213E+00  1.62239250E+00  0.00000000E+00  0.00000000E+00
  0.00000000E+00  0.00000000E+00  0.00000000E+00  0.00000000E+00  1.94928580E-15
  0.00000000E+00  0.00000000E+00 -3.28602044E-16  0.00000000E+00  0.00000000E+00
  0.00000000E+00  0.00000000E+00  0.00000000E+00  0.00000000E+00  9.55460542E-01
  0.00000000E+00  0.00000000E+00  1.08028945E+00  0.00000000E+00  0.00000000E+00
  0.00000000E+00  0.00000000E+00  0.00000000E+00  0.00000000E+00  0.00000000E+00
  0.00000000E+00  9.55460542E-01  0.00000000E+00  0.00000000E+00  1.08028945E+00
  0.00000000E+00  0.00000000E+00  0.00000000E+00  0.00000000E+00  0.00000000E+00
  0.00000000E+00  0.00000000E+00  0.00000000E+00  0.00000000E+00  0.00000000E+00
  0.00000000E+00  9.55460542E-01  0.00000000E+00  0.00000000E+00  1.08028945E+00
  0.00000000E+00  0.00000000E+00  0.00000000E+00  0.00000000E+00  0.00000000E+00
  0.00000000E+00  0.00000000E+00  0.00000000E+00  0.00000000E+00  0.00000000E+00
  0.00000000E+00  0.00000000E+00  0.00000000E+00  0.00000000E+00  0.00000000E+00
  0.00000000E+00  1.00000000E+00  0.00000000E+00  0.00000000E+00  0.00000000E+00
  0.00000000E+00  0.00000000E+00  0.00000000E+00  0.00000000E+00  0.00000000E+00
  0.00000000E+00  0.00000000E+00  0.00000000E+00  0.00000000E+00  0.00000000E+00
  0.00000000E+00  1.00000000E+00  0.00000000E+00  0.00000000E+00  0.00000000E+00
  0.00000000E+00  0.00000000E+00  0.00000000E+00  0.00000000E+00  0.00000000E+00
  0.00000000E+00  0.00000000E+00  0.00000000E+00  0.00000000E+00  0.00000000E+00
  0.00000000E+00  0.00000000E+00  1.00000000E+00  8.21624346E-16  3.22922047E-15
 -3.24868738E-15  0.00000000E+00  0.00000000E+00  0.00000000E+00  0.00000000E+00
  0.00000000E+00  0.00000000E+00  9.50412566E-01  0.00000000E+00  0.00000000E+00
 -3.10991888E-01  0.00000000E+00  2.55347816E-17 -1.45015856E-16  1.06232728E-16
  0.00000000E+00  0.00000000E+00  0.00000000E+00  0.00000000E+00  0.00000000E+00
  0.00000000E+00  3.10991888E-01  0.00000000E+00  0.00000000E+00  9.50412566E-01
  0.00000000E+00
Beta MO coefficients                       R   N=         196
  9.90144767E-01 -3.41897866E-02  1.22965303E-02  0.00000000E+00  0.00000000E+00
  0.00000000E+00  0.00000000E+00  0.00000000E+00  0.00000000E+00 -2.10911587E-16
  0.00000000E+00  0.00000000E+00 -4.97553022E-16  0.00000000E+00  2.99819379E-01
  6.10895590E-01  4.84949689E-01  0.00000000E+00  0.00000000E+00  0.00000000E+00
  0.00000000E+00  0.00000000E+00  0.00000000E+00 -2.14673499E-17  0.00000000E+00
  0.00000000E+00 -3.48826217E-17  0.00000000E+00  0.00000000E+00  0.00000000E+00
  0.00000000E+00  0.00000000E+00  0.00000000E+00  6.10689189E-01  0.00000000E+00
  0.00000000E+00 -5.34413770E-01  0.00000000E+00  0.00000000E+00  0.00000000E+00
  0.00000000E+00  0.00000000E+00  0.00000000E+00  0.00000000E+00  0.00000000E+00
  0.00000000E+00  6.10689189E-01  0.00000000E+00  0.00000000E+00 -5.34413770E-01
  0.00000000E+00  0.00000000E+00  0.00000000E+00  0.00000000E+00  0.00000000E+00
  0.00000000E+00  0.00000000E+00  0.00000000E+00  0.00000000E+00  6.10689189E-01
  0.00000000E+00  0.00000000E+00 -5.34413770E-01  0.00000000E+00  0.00000000E+00
  0.00000000E+00  0.00000000E+00  0.00000000E+00  0.00000000E+00  0.00000000E+00
  3.17504785E-01  1.64475069E+00 -1.60134216E+00  0.00000000E+00  0.00000000E+00
  0.00000000E+00  0.00000000E+00  0.00000000E+00  0.00000000E+00 -1.56338426E-15
  0.00000000E+00  0.00000000E+00 -3.23449084E-17  0.00000000E+00  0.00000000E+00
  0.00000000E+00  0.00000000E+00  0.00000000E+00  0.00000000E+00  1.00191887E+00
  0.00000000E+00  0.00000000E+00  1.04459783E+00  0.00000000E+00  0.00000000E+00
  0.00000000E+00  0.00000000E+00  0.00000000E+00  0.00000000E+00  0.00000000E+00
  0.00000000E+00  1.00191887E+00  0.00000000E+00  0.00000000E+00  1.04459783E+00
  0.00000000E+00  0.00000000E+00  0.00000000E+00  0.00000000E+00  0.00000000E+00
  0.00000000E+00  0.00000000E+00  0.00000000E+00  0.00000000E+00  0.00000000E+00
  0.00000000E+00  1.00191887E+00  0.00000000E+00  0.00000000E+00  1.04459783E+00
  0.00000000E+00  0.00000000E+00  0.00000000E+00  0.00000000E+00  0.00000000E+00
  0.00000000E+00  0.00000000E+00  0.00000000E+00  0.00000000E+00  0.00000000E+00
  0.00000000E+00  0.00000000E+00  0.00000000E+00  0.00000000E+00  0.00000000E+00
  0.00000000E+00  1.00000000E+00  0.00000000E+00  0.00000000E+00  0.00000000E+00
  0.00000000E+00  0.00000000E+00  0.00000000E+00  0.00000000E+00  0.00000000E+00
  0.00000000E+00  0.00000000E+00  0.00000000E+00  0.00000000E+00  0.00000000E+00
  0.00000000E+00  1.00000000E+00  0.00000000E+00  0.00000000E+00  0.00000000E+00
  0.00000000E+00  0.00000000E+00  0.00000000E+00  0.00000000E+00  0.00000000E+00
  0.00000000E+00  0.00000000E+00  0.00000000E+00  0.00000000E+00  0.00000000E+00
  0.00000000E+00  0.00000000E+00  1.00000000E+00 -1.29416433E-16 -2.16843909E-16
  1.44513081E-16  0.00000000E+00  0.00000000E+00  0.00000000E+00  0.00000000E+00
  0.00000000E+00  0.00000000E+00 -1.10230978E-01  0.00000000E+00  0.00000000E+00
  9.93905997E-01  0.00000000E+00  2.82513741E-16  2.49211526E-15 -3.28668573E-15
  0.00000000E+00  0.00000000E+00  0.00000000E+00  0.00000000E+00  0.00000000E+00
  0.00000000E+00  9.93905997E-01  0.00000000E+00  0.00000000E+00  1.10230978E-01
  0.00000000E+00
Total SCF Density                          R   N=         105
  2.14858454E+00  3.29177199E-01  8.48668431E-01  3.00892877E-01  5.76532556E-01
  4.02794077E-01  0.00000000E+00  0.00000000E+00  0.00000000E+00  4.63877857E-01
  0.00000000E+00  0.00000000E+00  0.00000000E+00  3.59506923E-33  4.63877857E-01
  0.00000000E+00  0.00000000E+00  0.00000000E+00  1.02716264E-33 -4.36544121E-33
  4.63877857E-01  0.00000000E+00  0.00000000E+00  0.00000000E+00 -3.11932384E-01
  3.59506923E-33  6.41976648E-34  2.09757398E-01  0.00000000E+00  0.00000000E+00
  0.00000000E+00  3.59506923E-33 -3.11932384E-01 -2.82469725E-33 -6.93334780E-33
  2.09757398E-01  0.00000000E+00  0.00000000E+00  0.00000000E+00  2.31111593E-33
 -2.82469725E-33 -3.11932384E-01 -2.56790659E-33  5.52099917E-33  2.09757398E-01
  1.19835641E-32 -2.44486107E-33 -9.09466918E-34  0.00000000E+00  0.00000000E+00
  0.00000000E+00  0.00000000E+00  0.00000000E+00  0.00000000E+00  2.63312590E-31
 -5.41561200E-34  4.76638345E-35  2.22459819E-35  0.00000000E+00  0.00000000E+00
  0.00000000E+00  0.00000000E+00  0.00000000E+00  0.00000000E+00  3.54306943E-48
  1.54793416E-62  4.12265100E-33 -4.34268832E-34 -8.84311114E-35  0.00000000E+00
  0.00000000E+00  0.00000000E+00  0.00000000E+00  0.00000000E+00  0.00000000E+00
 -1.56195689E-48 -2.01622902E-64  1.48387740E-62 -2.07561419E-32  7.41290781E-34
 -3.15048582E-34  0.00000000E+00  0.00000000E+00  0.00000000E+00  0.00000000E+00
  0.00000000E+00  0.00000000E+00  2.18777881E-62 -2.39874794E-48 -2.97965085E-48
  2.63312590E-31 -5.60556425E-34  2.58346908E-35  4.96498493E-35  0.00000000E+00
  0.00000000E+00  0.00000000E+00  0.00000000E+00  0.00000000E+00  0.00000000E+00
  5.80413817E-49  1.04916716E-64  5.99733927E-80  1.71425390E-47  1.41607487E-62
Spin SCF Density                           R   N=         105
  8.02790400E-03  3.05662021E-02  9.99437043E-02 -1.42524426E-02 -1.51338656E-02
 -6.78607348E-02  0.00000000E+00  0.00000000E+00  0.00000000E+00  4.63877857E-01
  0.00000000E+00  0.00000000E+00  0.00000000E+00  3.59506923E-33  4.63877857E-01
  0.00000000E+00  0.00000000E+00  0.00000000E+00  1.02716264E-33 -4.36544121E-33
  4.63877857E-01  0.00000000E+00  0.00000000E+00  0.00000000E+00 -3.11932384E-01
  3.59506923E-33  6.41976648E-34  2.09757398E-01  0.00000000E+00  0.00000000E+00
  0.00000000E+00  3.59506923E-33 -3.11932384E-01 -2.82469725E-33 -6.93334780E-33
  2.09757398E-01  0.00000000E+00  0.00000000E+00  0.00000000E+00  2.31111593E-33
 -2.82469725E-33 -3.11932384E-01 -2.56790659E-33  5.52099917E-33  2.09757398E-01
  1.50650520E-32 -2.47695990E-33 -1.10205991E-33  0.00000000E+00  0.00000000E+00
  0.00000000E+00  0.00000000E+00  0.00000000E+00  0.00000000E+00 -3.04077617E-32
 -8.21895124E-33  4.56517202E-36 -3.11833953E-34  0.00000000E+00  0.00000000E+00
  0.00000000E+00  0.00000000E+00  0.00000000E+00  0.00000000E+00 -2.68977459E-49
 -4.87336723E-63  2.52844779E-33 -5.35509720E-34 -2.29292578E-34  0.00000000E+00
  0.00000000E+00  0.00000000E+00  0.00000000E+00  0.00000000E+00  0.00000000E+00
  5.17963914E-51  1.99206332E-63  1.45553241E-63 -5.33729362E-32  7.41290781E-34
 -1.98295284E-33  0.00000000E+00  0.00000000E+00  0.00000000E+00  0.00000000E+00
  0.00000000E+00  0.00000000E+00  4.37905770E-47 -1.69781694E-48 -2.76769871E-49
 -3.04077617E-32 -2.82613034E-32 -1.60035374E-34 -1.17926393E-33  0.00000000E+00
  0.00000000E+00  0.00000000E+00  0.00000000E+00  0.00000000E+00  0.00000000E+00
  4.71311448E-48 -1.12767497E-64  8.99600891E-80 -2.83087932E-48 -1.51384698E-63
Grdnt Energy                               R     -5.452747406191986E+01
Grdnt NVar                                 I                3
Grdnt IGetFC                               I                0
Internal Forces                            R   N=           3
 -0.00000000E+00 -0.00000000E+00 -0.00000000E+00
Internal Force Constants                   R   N=           6
  0.00000000E+00  0.00000000E+00  0.00000000E+00  0.00000000E+00  0.00000000E+00
  0.00000000E+00
Mulliken Charges                           R   N=           1
  8.88178420E-16
NPA Charges                                R   N=           1
  8.88178420E-16
ONIOM Charges                              I   N=          16
           0           0           0           0           0           0
           0           0           0           0           0           0
           0           0           0           0
ONIOM Multiplicities                       I   N=          16
           4           0           0           0           0           0
           0           0           0           0           0           0
           0           0           0           0
Atom Layers                                I   N=           1
           1
Atom Modifiers                             I   N=           1
           0
Force Field                                I                0
Atom Modified Types                        C   N=           1
            
Int Atom Modified Types                    I   N=           1
           0
Link Atoms                                 I   N=           1
           0
Atom Modified MM Charges                   R   N=           1
  0.00000000E+00
Link Distances                             R   N=           4
  0.00000000E+00  0.00000000E+00  0.00000000E+00  0.00000000E+00
Cartesian Gradient                         R   N=           3
  0.00000000E+00  0.00000000E+00  0.00000000E+00
Dipole Moment                              R   N=           3
  0.00000000E+00  0.00000000E+00  0.00000000E+00
Quadrupole Moment                          R   N=           6
 -4.44089210E-16  4.44089210E-16  0.00000000E+00  1.74827481E-32  6.71246970E-33
 -1.27865374E-32
Anisotropic Hyperfine tensors              R   N=           6
 -2.96059473E-16  0.00000000E+00 -2.96059473E-16  0.00000000E+00  0.00000000E+00
  2.96059473E-16
Isotropic Hyperfine splittings             R   N=           1
  5.04174744E-01
QEq coupling tensors                       R   N=           6
  0.00000000E+00  0.00000000E+00  0.00000000E+00  0.00000000E+00  0.00000000E+00
  0.00000000E+00
Gaussian Version                           C   N=           2
ES64L-G09RevE.01        
