 Entering Gaussian System, Link 0=g09
 Input=df-bp86svp.prop.com
 Output=df-bp86svp.prop.log
 Initial command:
 /home/chemsoft/gaussian/g09e01/g09/l1.exe "/scr/martin/g09job.inter1515653010/Gau-6222.inp" -scrdir="/scr/martin/g09job.inter1515653010/"
 Entering Link 1 = /home/chemsoft/gaussian/g09e01/g09/l1.exe PID=      6223.
  
 Copyright (c) 1988,1990,1992,1993,1995,1998,2003,2009,2015,
            Gaussian, Inc.  All Rights Reserved.
  
 This is part of the Gaussian(R) 09 program.  It is based on
 the Gaussian(R) 03 system (copyright 2003, Gaussian, Inc.),
 the Gaussian(R) 98 system (copyright 1998, Gaussian, Inc.),
 the Gaussian(R) 94 system (copyright 1995, Gaussian, Inc.),
 the Gaussian 92(TM) system (copyright 1992, Gaussian, Inc.),
 the Gaussian 90(TM) system (copyright 1990, Gaussian, Inc.),
 the Gaussian 88(TM) system (copyright 1988, Gaussian, Inc.),
 the Gaussian 86(TM) system (copyright 1986, Carnegie Mellon
 University), and the Gaussian 82(TM) system (copyright 1983,
 Carnegie Mellon University). Gaussian is a federally registered
 trademark of Gaussian, Inc.
  
 This software contains proprietary and confidential information,
 including trade secrets, belonging to Gaussian, Inc.
  
 This software is provided under written license and may be
 used, copied, transmitted, or stored only in accord with that
 written license.
  
 The following legend is applicable only to US Government
 contracts under FAR:
  
                    RESTRICTED RIGHTS LEGEND
  
 Use, reproduction and disclosure by the US Government is
 subject to restrictions as set forth in subparagraphs (a)
 and (c) of the Commercial Computer Software - Restricted
 Rights clause in FAR 52.227-19.
  
 Gaussian, Inc.
 340 Quinnipiac St., Bldg. 40, Wallingford CT 06492
  
  
 ---------------------------------------------------------------
 Warning -- This program may not be used in any manner that
 competes with the business of Gaussian, Inc. or will provide
 assistance to any competitor of Gaussian, Inc.  The licensee
 of this program is prohibited from giving any competitor of
 Gaussian, Inc. access to this program.  By using this program,
 the user acknowledges that Gaussian, Inc. is engaged in the
 business of creating and licensing software in the field of
 computational chemistry and represents and warrants to the
 licensee that it is not a competitor of Gaussian, Inc. and that
 it will not use this program in any manner prohibited above.
 ---------------------------------------------------------------
  

 Cite this work as:
 Gaussian 09, Revision E.01,
 M. J. Frisch, G. W. Trucks, H. B. Schlegel, G. E. Scuseria, 
 M. A. Robb, J. R. Cheeseman, G. Scalmani, V. Barone, B. Mennucci, 
 G. A. Petersson, H. Nakatsuji, M. Caricato, X. Li, H. P. Hratchian, 
 A. F. Izmaylov, J. Bloino, G. Zheng, J. L. Sonnenberg, M. Hada, 
 M. Ehara, K. Toyota, R. Fukuda, J. Hasegawa, M. Ishida, T. Nakajima, 
 Y. Honda, O. Kitao, H. Nakai, T. Vreven, J. A. Montgomery, Jr., 
 J. E. Peralta, F. Ogliaro, M. Bearpark, J. J. Heyd, E. Brothers, 
 K. N. Kudin, V. N. Staroverov, T. Keith, R. Kobayashi, J. Normand, 
 K. Raghavachari, A. Rendell, J. C. Burant, S. S. Iyengar, J. Tomasi, 
 M. Cossi, N. Rega, J. M. Millam, M. Klene, J. E. Knox, J. B. Cross, 
 V. Bakken, C. Adamo, J. Jaramillo, R. Gomperts, R. E. Stratmann, 
 O. Yazyev, A. J. Austin, R. Cammi, C. Pomelli, J. W. Ochterski, 
 R. L. Martin, K. Morokuma, V. G. Zakrzewski, G. A. Voth, 
 P. Salvador, J. J. Dannenberg, S. Dapprich, A. D. Daniels, 
 O. Farkas, J. B. Foresman, J. V. Ortiz, J. Cioslowski, 
 and D. J. Fox, Gaussian, Inc., Wallingford CT, 2013.
 
 ******************************************
 Gaussian 09:  ES64L-G09RevE.01 30-Nov-2015
                11-Jan-2018 
 ******************************************
 %chk=df-bp86svp.chk
 ----------------------------------------------------------------------
 #P BP86/def2SVP/W06 DenFit scf(xqc,MaxConventionalCycle=500) int(ultra
 finegrid) gfinput gfoldprint iop(6/7=3) symmetry(loose) geom=allcheck 
 guess(read,only) output=wfx
 ----------------------------------------------------------------------
 1/29=7,38=1/1;
 2/12=2,17=4,18=3,40=1/2;
 3/5=43,7=101,11=2,14=-4,16=1,24=11,25=1,30=1,74=404,75=-5,82=40,89=1,116=-2/1,2,3;
 4/5=1/1;
 6/7=3,28=1/1;
 99/5=2,6=200/99;
 Leave Link    1 at Thu Jan 11 15:43:30 2018, MaxMem=           0 cpu:         0.1
 (Enter /home/chemsoft/gaussian/g09e01/g09/l101.exe)
 Structure from the checkpoint file:  "df-bp86svp.chk"
 -----------------------
 Local Min Search (Sing)
 -----------------------
 Charge =  0 Multiplicity = 1
 Redundant internal coordinates found in file.
 O,0,-0.0351591941,0.,-0.0248614468
 H,0,0.027172712,0.,0.9488640731
 H,0,0.9036564948,0.,-0.290665429
 Recover connectivity data from disk.
 NAtoms=      3 NQM=        3 NQMF=       0 NMMI=      0 NMMIF=      0
                NMic=       0 NMicF=      0.
                    Isotopes and Nuclear Properties:
 (Nuclear quadrupole moments (NQMom) in fm**2, nuclear magnetic moments (NMagM)
  in nuclear magnetons)

  Atom         1           2           3
 IAtWgt=          16           1           1
 AtmWgt=  15.9949146   1.0078250   1.0078250
 NucSpn=           0           1           1
 AtZEff=  -5.6000000  -1.0000000  -1.0000000
 NQMom=    0.0000000   0.0000000   0.0000000
 NMagM=    0.0000000   2.7928460   2.7928460
 AtZNuc=   8.0000000   1.0000000   1.0000000
 Leave Link  101 at Thu Jan 11 15:43:31 2018, MaxMem=    33554432 cpu:         0.2
 (Enter /home/chemsoft/gaussian/g09e01/g09/l202.exe)
                          Input orientation:                          
 ---------------------------------------------------------------------
 Center     Atomic      Atomic             Coordinates (Angstroms)
 Number     Number       Type             X           Y           Z
 ---------------------------------------------------------------------
      1          8           0       -0.035159   -0.000000   -0.024861
      2          1           0        0.027173   -0.000000    0.948864
      3          1           0        0.903656    0.000000   -0.290665
 ---------------------------------------------------------------------
                    Distance matrix (angstroms):
                    1          2          3
     1  O    0.000000
     2  H    0.975719   0.000000
     3  H    0.975719   1.518110   0.000000
 Stoichiometry    H2O
 Framework group  C2V[C2(O),SGV(H2)]
 Deg. of freedom     2
 Full point group                 C2V     NOp   4
 RotChk:  IX=3 Diff= 1.31D-15
 Largest Abelian subgroup         C2V     NOp   4
 Largest concise Abelian subgroup C2      NOp   2
                         Standard orientation:                         
 ---------------------------------------------------------------------
 Center     Atomic      Atomic             Coordinates (Angstroms)
 Number     Number       Type             X           Y           Z
 ---------------------------------------------------------------------
      1          8           0        0.000000    0.000000    0.122615
      2          1           0        0.000000   -0.759055   -0.490461
      3          1           0        0.000000    0.759055   -0.490461
 ---------------------------------------------------------------------
 Rotational constants (GHZ):    751.1360963    435.1667559    275.5362660
 Leave Link  202 at Thu Jan 11 15:43:31 2018, MaxMem=    33554432 cpu:         0.0
 (Enter /home/chemsoft/gaussian/g09e01/g09/l301.exe)
 Standard basis: def2SVP (5D, 7F)
 ======================================================================================================
                                       Pseudopotential Parameters
 ======================================================================================================
  Center     Atomic      Valence      Angular      Power
  Number     Number     Electrons     Momentum     of R      Exponent        Coefficient   SO-Coeffient
 ======================================================================================================
    1          8
                                   No pseudopotential on this center.
    2          1
                                   No pseudopotential on this center.
    3          1
                                   No pseudopotential on this center.
 ======================================================================================================
 Ernie: Thresh=  0.10000D-02 Tol=  0.10000D-05 Strict=F.
 AO basis set in the form of general basis input (Overlap normalization):
      1 0
 S   5 1.00       0.000000000000
      0.2266176779D+04 -0.5389350392D-02
      0.3408701019D+03 -0.4023472139D-01
      0.7736313517D+02 -0.1800818421D+00
      0.2147964494D+02 -0.4682885766D+00
      0.6658943312D+01 -0.4469261716D+00
 S   1 1.00       0.000000000000
      0.8097597567D+00  0.1000000000D+01
 S   1 1.00       0.000000000000
      0.2553077223D+00  0.1000000000D+01
 P   3 1.00       0.000000000000
      0.1772150432D+02  0.6263024876D-01
      0.3863550544D+01  0.3333113848D+00
      0.1048092088D+01  0.7414863831D+00
 P   1 1.00       0.000000000000
      0.2764154441D+00  0.1000000000D+01
 D   1 1.00       0.000000000000
      0.1200000000D+01  0.1000000000D+01
 ****
      2 0
 S   3 1.00       0.000000000000
      0.1301070100D+02  0.3348548481D-01
      0.1962257200D+01  0.2347218709D+00
      0.4445379600D+00  0.8137702853D+00
 S   1 1.00       0.000000000000
      0.1219496200D+00  0.1000000000D+01
 P   1 1.00       0.000000000000
      0.8000000000D+00  0.1000000000D+01
 ****
      3 0
 S   3 1.00       0.000000000000
      0.1301070100D+02  0.3348548481D-01
      0.1962257200D+01  0.2347218709D+00
      0.4445379600D+00  0.8137702853D+00
 S   1 1.00       0.000000000000
      0.1219496200D+00  0.1000000000D+01
 P   1 1.00       0.000000000000
      0.8000000000D+00  0.1000000000D+01
 ****

 ***********************************************************************************************************************************
 *             ATOMIC CENTER             *        ATOMIC ORBITAL       *                     GAUSSIAN FUNCTIONS                    *
 ***********************************************************************************************************************************
 *                                       * FUNCTION    SHELL    SCALE  *                                                           *
 *    ATOM   X-COORD  Y-COORD  Z-COORD   *  NUMBER     TYPE     FACTOR *  EXPONENT    S-COEF      P-COEF      D-COEF      F-COEF   *
 ***********************************************************************************************************************************
 *     O      0.00000  0.00000  0.23171                                                                                            *
+                                                1   S           1.00                                                               
+                                                                      0.226618D+04-.126159D+010.000000D+000.000000D+000.000000D+00 
 *                                                                     0.340870D+03-.227485D+010.000000D+000.000000D+000.000000D+00*
 *                                                                     0.773631D+02-.334796D+010.000000D+000.000000D+000.000000D+00*
 *                                                                     0.214796D+02-.333000D+010.000000D+000.000000D+000.000000D+00*
 *                                                                     0.665894D+01-.132038D+010.000000D+000.000000D+000.000000D+00*
 *                                               2   S           1.00                                                              *
+                                                                      0.809760D+000.608383D+000.000000D+000.000000D+000.000000D+00 
 *                                               3   S           1.00                                                              *
+                                                                      0.255308D+000.255981D+000.000000D+000.000000D+000.000000D+00 
 *                                           4-  6   P           1.00                                                              *
+                                                                      0.177215D+020.000000D+000.324601D+010.000000D+000.000000D+00 
 *                                                                     0.386355D+010.000000D+000.257350D+010.000000D+000.000000D+00*
 *                                                                     0.104809D+010.000000D+000.112084D+010.000000D+000.000000D+00*
 *                                           7-  9   P           1.00                                                              *
+                                                                      0.276415D+000.000000D+000.285689D+000.000000D+000.000000D+00 
 *                                          10- 14   D           1.00                                                              *
+                                                                      0.120000D+010.000000D+000.000000D+000.226452D+010.000000D+00 
 *---------------------------------------------------------------------------------------------------------------------------------*
 *     H      0.00000 -1.43441 -0.92684                                                                                            *
+                                               15   S           1.00                                                               
+                                                                      0.130107D+020.163490D+000.000000D+000.000000D+000.000000D+00 
 *                                                                     0.196226D+010.277352D+000.000000D+000.000000D+000.000000D+00*
 *                                                                     0.444538D+000.315750D+000.000000D+000.000000D+000.000000D+00*
 *                                              16   S           1.00                                                              *
+                                                                      0.121950D+000.147077D+000.000000D+000.000000D+000.000000D+00 
 *                                          17- 19   P           1.00                                                              *
+                                                                      0.800000D+000.000000D+000.107846D+010.000000D+000.000000D+00 
 *---------------------------------------------------------------------------------------------------------------------------------*
 *     H      0.00000  1.43441 -0.92684                                                                                            *
+                                               20   S           1.00                                                               
+                                                                      0.130107D+020.163490D+000.000000D+000.000000D+000.000000D+00 
 *                                                                     0.196226D+010.277352D+000.000000D+000.000000D+000.000000D+00*
 *                                                                     0.444538D+000.315750D+000.000000D+000.000000D+000.000000D+00*
 *                                              21   S           1.00                                                              *
+                                                                      0.121950D+000.147077D+000.000000D+000.000000D+000.000000D+00 
 *                                          22- 24   P           1.00                                                              *
+                                                                      0.800000D+000.000000D+000.107846D+010.000000D+000.000000D+00 
 ***********************************************************************************************************************************
 There are    12 symmetry adapted cartesian basis functions of A1  symmetry.
 There are     2 symmetry adapted cartesian basis functions of A2  symmetry.
 There are     4 symmetry adapted cartesian basis functions of B1  symmetry.
 There are     7 symmetry adapted cartesian basis functions of B2  symmetry.
 There are    11 symmetry adapted basis functions of A1  symmetry.
 There are     2 symmetry adapted basis functions of A2  symmetry.
 There are     4 symmetry adapted basis functions of B1  symmetry.
 There are     7 symmetry adapted basis functions of B2  symmetry.
    24 basis functions,    39 primitive gaussians,    25 cartesian basis functions
     5 alpha electrons        5 beta electrons
       nuclear repulsion energy         9.0261150969 Hartrees.
 IExCor=  404 DFT=T Ex=B Corr=P86 ExCW=0 ScaHFX=  0.000000
 ScaDFX=  1.000000  1.000000  1.000000  1.000000 ScalE2=  1.000000  1.000000
 IRadAn=      5 IRanWt=     -1 IRanGd=            0 ICorTp=0 IEmpDi=  4
 NAtoms=    3 NActive=    3 NUniq=    2 SFac= 2.25D+00 NAtFMM=   60 NAOKFM=F Big=F
 Integral buffers will be    131072 words long.
 Raffenetti 2 integral format.
 Two-electron integral symmetry is turned on.
 Standard density basis: W06 (5D, 7F)
    71 Density fitting functions
 Density basis set in the form of general basis input (Coulomb normalization):
      1 0
 S   7 1.00       0.000000000000
      0.2876821660D+04  0.2270593741D-02
      0.1004744303D+04  0.7771821934D-02
      0.3697579954D+03  0.4500776675D-01
      0.1429442404D+03  0.1614169872D+00
      0.5783664250D+02  0.4002483159D+00
      0.2438649830D+02  0.4055352428D+00
      0.1066226620D+02  0.1264483877D-01
 S   1 1.00       0.000000000000
      0.4807043700D+01 -0.1000000000D+01
 S   1 1.00       0.000000000000
      0.2221077000D+01  0.1000000000D+01
 S   1 1.00       0.000000000000
      0.1044779500D+01  0.1000000000D+01
 S   1 1.00       0.000000000000
      0.4968425000D+00  0.1000000000D+01
 S   1 1.00       0.000000000000
      0.2371384000D+00  0.1000000000D+01
 P   2 1.00       0.000000000000
      0.6426133820D+02 -0.1493990575D+00
      0.1630060760D+02 -0.8870141552D+00
 P   1 1.00       0.000000000000
      0.4355054200D+01  0.1000000000D+01
 P   1 1.00       0.000000000000
      0.1201955400D+01  0.1000000000D+01
 P   1 1.00       0.000000000000
      0.3354196000D+00  0.1000000000D+01
 D   2 1.00       0.000000000000
      0.9214661100D+01 -0.2892091355D+00
      0.2843525100D+01 -0.7372695630D+00
 D   1 1.00       0.000000000000
      0.9955759000D+00 -0.1000000000D+01
 D   1 1.00       0.000000000000
      0.3649441000D+00 -0.1000000000D+01
 F   2 1.00       0.000000000000
      0.2642011500D+01  0.3737238795D+00
      0.7345613000D+00  0.7087681254D+00
 G   1 1.00       0.000000000000
      0.1393100000D+01 -0.1000000000D+01
 ****
      2 0
 S   3 1.00       0.000000000000
      0.1567529270D+02  0.3261158972D-01
      0.3606357800D+01  0.2298046837D+00
      0.1208001600D+01  0.7572083240D+00
 S   1 1.00       0.000000000000
      0.4726794000D+00  0.1000000000D+01
 S   1 1.00       0.000000000000
      0.2018100000D+00  0.1000000000D+01
 P   2 1.00       0.000000000000
      0.2028136500D+01  0.3618361986D+00
      0.5358730000D+00  0.7039303088D+00
 D   1 1.00       0.000000000000
      0.2216512400D+01  0.1000000000D+01
 ****
      3 0
 S   3 1.00       0.000000000000
      0.1567529270D+02  0.3261158972D-01
      0.3606357800D+01  0.2298046837D+00
      0.1208001600D+01  0.7572083240D+00
 S   1 1.00       0.000000000000
      0.4726794000D+00  0.1000000000D+01
 S   1 1.00       0.000000000000
      0.2018100000D+00  0.1000000000D+01
 P   2 1.00       0.000000000000
      0.2028136500D+01  0.3618361986D+00
      0.5358730000D+00  0.7039303088D+00
 D   1 1.00       0.000000000000
      0.2216512400D+01  0.1000000000D+01
 ****

 There are    71 symmetry adapted density basis functions of A   symmetry.
 Leave Link  301 at Thu Jan 11 15:43:31 2018, MaxMem=    33554432 cpu:         0.2
 (Enter /home/chemsoft/gaussian/g09e01/g09/l302.exe)
 NPDir=0 NMtPBC=     1 NCelOv=     1 NCel=       1 NClECP=     1 NCelD=      1
         NCelK=      1 NCelE2=     1 NClLst=     1 CellRange=     0.0.
 One-electron integrals computed using PRISM.
 One-electron integral symmetry used in STVInt
   4 Symmetry operations used in ECPInt.
 ECPInt:  NShTT=      78 NPrTT=     272 LenC2=      79 LenP2D=     271.
 LDataN:  DoStor=T MaxTD1= 4 Len=   56
 NBasis=    24 RedAO= T EigKep=  6.09D-02  NBF=    11     2     4     7
 NBsUse=    24 1.00D-06 EigRej= -1.00D+00 NBFU=    11     2     4     7
 Precomputing XC quadrature grid using
 IXCGrd= 4 IRadAn=           5 IRanWt=          -1 IRanGd=           0 AccXCQ= 0.00D+00.
 Generated NRdTot=       0 NPtTot=           0 NUsed=           0 NTot=          32
 NSgBfM=    25    25    25    25    25 MxSgAt=     3 MxSgA2=     3.
 Leave Link  302 at Thu Jan 11 15:43:31 2018, MaxMem=    33554432 cpu:         0.3
 (Enter /home/chemsoft/gaussian/g09e01/g09/l303.exe)
 DipDrv:  MaxL=1.
 Leave Link  303 at Thu Jan 11 15:43:31 2018, MaxMem=    33554432 cpu:         0.0
 (Enter /home/chemsoft/gaussian/g09e01/g09/l401.exe)
 Initial guess from the checkpoint file:  "df-bp86svp.chk"
 B after Tr=    -0.000000    0.000000   -0.000000
         Rot=    1.000000    0.000000   -0.000000   -0.000000 Ang=   0.00 deg.
 Guess basis will be translated and rotated to current coordinates.
 JPrj=2 DoOrth=T DoCkMO=T.
 Initial guess orbital symmetries:
       Occupied  (A1) (A1) (B2) (A1) (B1)
       Virtual   (A1) (B2) (B2) (A1) (A1) (B1) (B2) (A1) (A2) (A1)
                 (B1) (B2) (B2) (A1) (B1) (A2) (A1) (A1) (B2)
 The electronic state of the initial guess is 1-A1.
 Leave Link  401 at Thu Jan 11 15:43:32 2018, MaxMem=    33554432 cpu:         0.2
 (Enter /home/chemsoft/gaussian/g09e01/g09/l601.exe)
 Copying SCF densities to generalized density rwf, IOpCl= 0 IROHF=0.

 **********************************************************************

            Population analysis using the SCF density.

 **********************************************************************

 Orbital symmetries:
       Occupied  (A1) (A1) (B2) (A1) (B1)
       Virtual   (A1) (B2) (B2) (A1) (A1) (B1) (B2) (A1) (A2) (A1)
                 (B1) (B2) (B2) (A1) (B1) (A2) (A1) (A1) (B2)
 The electronic state is 1-A1.
 Alpha  occ. eigenvalues --  -18.76326  -0.89112  -0.45558  -0.31402  -0.23353
 Alpha virt. eigenvalues --    0.02845   0.10475   0.50640   0.57009   0.86127
 Alpha virt. eigenvalues --    0.86174   0.95414   1.04067   1.28560   1.32570
 Alpha virt. eigenvalues --    1.47282   1.71612   2.09918   2.14961   2.86557
 Alpha virt. eigenvalues --    2.89052   3.07862   3.37473   3.71905
     Molecular Orbital Coefficients:
                           1         2         3         4         5
                        (A1)--O   (A1)--O   (B2)--O   (A1)--O   (B1)--O
     Eigenvalues --   -18.76326  -0.89112  -0.45558  -0.31402  -0.23353
   1 1   O  1S          0.98870   0.27516   0.00000   0.11618   0.00000
   2        2S         -0.03992   0.55056   0.00000   0.22827   0.00000
   3        3S          0.01454   0.26044   0.00000   0.37619   0.00000
   4        4PX         0.00000   0.00000   0.00000   0.00000   0.63590
   5        4PY         0.00000   0.00000   0.50603   0.00000   0.00000
   6        4PZ         0.00302  -0.13101   0.00000   0.54002   0.00000
   7        5PX         0.00000   0.00000   0.00000   0.00000   0.49245
   8        5PY         0.00000   0.00000   0.20770   0.00000   0.00000
   9        5PZ        -0.00014  -0.00503   0.00000   0.33757   0.00000
  10        6D 0       -0.00021   0.00344   0.00000  -0.01850   0.00000
  11        6D+1        0.00000   0.00000   0.00000   0.00000  -0.01980
  12        6D-1        0.00000   0.00000  -0.02173   0.00000   0.00000
  13        6D+2        0.00129  -0.00588   0.00000  -0.00019   0.00000
  14        6D-2        0.00000   0.00000   0.00000   0.00000   0.00000
  15 2   H  1S          0.00230   0.20416  -0.32711  -0.20363   0.00000
  16        2S         -0.00237   0.01389  -0.10766  -0.06905   0.00000
  17        3PX         0.00000   0.00000   0.00000   0.00000   0.03137
  18        3PY         0.00248   0.03048  -0.01179  -0.02387   0.00000
  19        3PZ         0.00205   0.01472  -0.02505   0.01483   0.00000
  20 3   H  1S          0.00230   0.20416   0.32711  -0.20363   0.00000
  21        2S         -0.00237   0.01389   0.10766  -0.06905   0.00000
  22        3PX         0.00000   0.00000   0.00000   0.00000   0.03137
  23        3PY        -0.00248  -0.03048  -0.01179   0.02387   0.00000
  24        3PZ         0.00205   0.01472   0.02505   0.01483   0.00000
                           6         7         8         9        10
                        (A1)--V   (B2)--V   (B2)--V   (A1)--V   (A1)--V
     Eigenvalues --     0.02845   0.10475   0.50640   0.57009   0.86127
   1 1   O  1S          0.10890   0.00000   0.00000  -0.09739  -0.14861
   2        2S          0.20199   0.00000   0.00000  -0.37171  -0.64122
   3        3S          0.88373   0.00000   0.00000   0.46745   0.18978
   4        4PX         0.00000   0.00000   0.00000   0.00000   0.00000
   5        4PY         0.00000   0.40552   0.27565   0.00000   0.00000
   6        4PZ        -0.27528   0.00000   0.00000   0.39389  -0.76843
   7        5PX         0.00000   0.00000   0.00000   0.00000   0.00000
   8        5PY         0.00000   0.58894   0.32028   0.00000   0.00000
   9        5PZ        -0.33482   0.00000   0.00000  -0.03530   1.12121
  10        6D 0        0.00914   0.00000   0.00000   0.00215  -0.00858
  11        6D+1        0.00000   0.00000   0.00000   0.00000   0.00000
  12        6D-1        0.00000  -0.00138   0.09999   0.00000   0.00000
  13        6D+2       -0.00013   0.00000   0.00000  -0.08978  -0.01865
  14        6D-2        0.00000   0.00000   0.00000   0.00000   0.00000
  15 2   H  1S         -0.14260   0.15940   0.95150   0.83743   0.38834
  16        2S         -0.77971   1.21358  -0.93656  -0.67755  -0.02816
  17        3PX         0.00000   0.00000   0.00000   0.00000   0.00000
  18        3PY         0.01369  -0.00929  -0.03589  -0.19345   0.00985
  19        3PZ         0.00527  -0.01450  -0.10069  -0.04700   0.14110
  20 3   H  1S         -0.14260  -0.15940  -0.95150   0.83743   0.38834
  21        2S         -0.77971  -1.21358   0.93656  -0.67755  -0.02816
  22        3PX         0.00000   0.00000   0.00000   0.00000   0.00000
  23        3PY        -0.01369  -0.00929  -0.03589   0.19345  -0.00985
  24        3PZ         0.00527   0.01450   0.10069  -0.04700   0.14110
                          11        12        13        14        15
                        (B1)--V   (B2)--V   (A1)--V   (A2)--V   (A1)--V
     Eigenvalues --     0.86174   0.95414   1.04067   1.28560   1.32570
   1 1   O  1S          0.00000   0.00000  -0.24370   0.00000  -0.08606
   2        2S          0.00000   0.00000  -1.53628   0.00000  -0.71242
   3        3S          0.00000   0.00000   2.71735   0.00000   1.69680
   4        4PX        -0.96544   0.00000   0.00000   0.00000   0.00000
   5        4PY         0.00000  -0.78326   0.00000   0.00000   0.00000
   6        4PZ         0.00000   0.00000   0.11049   0.00000   0.12066
   7        5PX         1.00877   0.00000   0.00000   0.00000   0.00000
   8        5PY         0.00000   1.72273   0.00000   0.00000   0.00000
   9        5PZ         0.00000   0.00000  -0.62931   0.00000  -1.21945
  10        6D 0        0.00000   0.00000   0.04751   0.00000  -0.19719
  11        6D+1        0.00181   0.00000   0.00000   0.00000   0.00000
  12        6D-1        0.00000  -0.01406   0.00000   0.00000   0.00000
  13        6D+2        0.00000   0.00000   0.05874   0.00000   0.01783
  14        6D-2        0.00000   0.00000   0.00000  -0.17692   0.00000
  15 2   H  1S          0.00000   0.33137  -0.50632   0.00000  -0.74038
  16        2S          0.00000   0.82090  -0.50716   0.00000  -0.18991
  17        3PX         0.03403   0.00000   0.00000   0.66763   0.00000
  18        3PY         0.00000   0.21271   0.05538   0.00000  -0.44788
  19        3PZ         0.00000   0.11250  -0.31152   0.00000   0.41190
  20 3   H  1S          0.00000  -0.33137  -0.50632   0.00000  -0.74038
  21        2S          0.00000  -0.82090  -0.50716   0.00000  -0.18991
  22        3PX         0.03403   0.00000   0.00000  -0.66763   0.00000
  23        3PY         0.00000   0.21271  -0.05538   0.00000   0.44788
  24        3PZ         0.00000  -0.11250  -0.31152   0.00000   0.41190
                          16        17        18        19        20
                        (B1)--V   (B2)--V   (B2)--V   (A1)--V   (B1)--V
     Eigenvalues --     1.47282   1.71612   2.09918   2.14961   2.86557
   1 1   O  1S          0.00000   0.00000   0.00000   0.14472   0.00000
   2        2S          0.00000   0.00000   0.00000   0.68201   0.00000
   3        3S          0.00000   0.00000   0.00000   0.73498   0.00000
   4        4PX         0.01948   0.00000   0.00000   0.00000   0.02173
   5        4PY         0.00000  -0.00539   0.69871   0.00000   0.00000
   6        4PZ         0.00000   0.00000   0.00000  -0.57449   0.00000
   7        5PX        -0.58979   0.00000   0.00000   0.00000  -0.29886
   8        5PY         0.00000   0.80450   0.12189   0.00000   0.00000
   9        5PZ         0.00000   0.00000   0.00000  -0.23260   0.00000
  10        6D 0        0.00000   0.00000   0.00000  -0.08263   0.00000
  11        6D+1       -0.21241   0.00000   0.00000   0.00000   1.02675
  12        6D-1        0.00000   0.03426   0.17055   0.00000   0.00000
  13        6D+2        0.00000   0.00000   0.00000   0.27865   0.00000
  14        6D-2        0.00000   0.00000   0.00000   0.00000   0.00000
  15 2   H  1S          0.00000   0.32893   0.17242  -0.39324   0.00000
  16        2S          0.00000   0.09536   0.35330  -0.21829   0.00000
  17        3PX         0.72879   0.00000   0.00000   0.00000   0.40869
  18        3PY         0.00000  -0.44559   0.68836  -0.70018   0.00000
  19        3PZ         0.00000   0.68115   0.50804  -0.52213   0.00000
  20 3   H  1S          0.00000  -0.32893  -0.17242  -0.39324   0.00000
  21        2S          0.00000  -0.09536  -0.35330  -0.21829   0.00000
  22        3PX         0.72879   0.00000   0.00000   0.00000   0.40869
  23        3PY         0.00000  -0.44559   0.68836   0.70018   0.00000
  24        3PZ         0.00000  -0.68115  -0.50804  -0.52213   0.00000
                          21        22        23        24
                        (A2)--V   (A1)--V   (A1)--V   (B2)--V
     Eigenvalues --     2.89052   3.07862   3.37473   3.71905
   1 1   O  1S          0.00000  -0.00651   0.06828   0.00000
   2        2S          0.00000  -0.10287   0.07645   0.00000
   3        3S          0.00000   0.36221   1.93621   0.00000
   4        4PX         0.00000   0.00000   0.00000   0.00000
   5        4PY         0.00000   0.00000   0.00000  -0.43882
   6        4PZ         0.00000   0.02658  -0.35984   0.00000
   7        5PX         0.00000   0.00000   0.00000   0.00000
   8        5PY         0.00000   0.00000   0.00000  -1.09470
   9        5PZ         0.00000  -0.46199  -0.96513   0.00000
  10        6D 0        0.00000   1.04357   0.26416   0.00000
  11        6D+1        0.00000   0.00000   0.00000   0.00000
  12        6D-1        0.00000   0.00000   0.00000   1.33153
  13        6D+2        0.00000   0.28892  -1.10813   0.00000
  14        6D-2        1.04716   0.00000   0.00000   0.00000
  15 2   H  1S          0.00000  -0.20985  -1.13047  -1.00671
  16        2S          0.00000  -0.03392  -0.24345  -0.27765
  17        3PX         0.37411   0.00000   0.00000   0.00000
  18        3PY         0.00000  -0.31995  -0.62888  -0.60527
  19        3PZ         0.00000   0.34974  -0.47103  -0.52891
  20 3   H  1S          0.00000  -0.20985  -1.13047   1.00671
  21        2S          0.00000  -0.03392  -0.24345   0.27765
  22        3PX        -0.37411   0.00000   0.00000   0.00000
  23        3PY         0.00000   0.31995   0.62888  -0.60527
  24        3PZ         0.00000   0.34974  -0.47103   0.52891
     Density Matrix:
                           1         2         3         4         5
   1 1   O  1S          2.13349
   2        2S          0.27708   0.71362
   3        3S          0.25948   0.45735   0.41912
   4        4PX         0.00000   0.00000   0.00000   0.80875
   5        4PY         0.00000   0.00000   0.00000   0.00000   0.51213
   6        4PZ         0.05934   0.10204   0.33815   0.00000   0.00000
   7        5PX         0.00000   0.00000   0.00000   0.62631   0.00000
   8        5PY         0.00000   0.00000   0.00000   0.00000   0.21021
   9        5PZ         0.07540   0.14859   0.25136   0.00000   0.00000
  10        6D 0       -0.00281  -0.00464  -0.01213   0.00000   0.00000
  11        6D+1        0.00000   0.00000   0.00000  -0.02518   0.00000
  12        6D-1        0.00000   0.00000   0.00000   0.00000  -0.02200
  13        6D+2       -0.00073  -0.00667  -0.00317   0.00000   0.00000
  14        6D-2        0.00000   0.00000   0.00000   0.00000   0.00000
  15 2   H  1S          0.06958   0.13166  -0.04680   0.00000  -0.33106
  16        2S         -0.01309  -0.01604  -0.04479   0.00000  -0.10896
  17        3PX         0.00000   0.00000   0.00000   0.03990   0.00000
  18        3PY         0.01614   0.02247  -0.00201   0.00000  -0.01193
  19        3PZ         0.01561   0.02282   0.01889   0.00000  -0.02535
  20 3   H  1S          0.06958   0.13166  -0.04680   0.00000   0.33106
  21        2S         -0.01309  -0.01604  -0.04479   0.00000   0.10896
  22        3PX         0.00000   0.00000   0.00000   0.03990   0.00000
  23        3PY        -0.01614  -0.02247   0.00201   0.00000  -0.01193
  24        3PZ         0.01561   0.02282   0.01889   0.00000   0.02535
                           6         7         8         9        10
   6        4PZ         0.61758
   7        5PX         0.00000   0.48502
   8        5PY         0.00000   0.00000   0.08628
   9        5PZ         0.36590   0.00000   0.00000   0.22795
  10        6D 0       -0.02088   0.00000   0.00000  -0.01252   0.00071
  11        6D+1        0.00000  -0.01950   0.00000   0.00000   0.00000
  12        6D-1        0.00000   0.00000  -0.00903   0.00000   0.00000
  13        6D+2        0.00134   0.00000   0.00000  -0.00007  -0.00003
  14        6D-2        0.00000   0.00000   0.00000   0.00000   0.00000
  15 2   H  1S         -0.27341   0.00000  -0.13588  -0.13953   0.00894
  16        2S         -0.07823   0.00000  -0.04472  -0.04676   0.00265
  17        3PX         0.00000   0.03090   0.00000   0.00000   0.00000
  18        3PY        -0.03376   0.00000  -0.00490  -0.01643   0.00109
  19        3PZ         0.01217   0.00000  -0.01041   0.00987  -0.00045
  20 3   H  1S         -0.27341   0.00000   0.13588  -0.13953   0.00894
  21        2S         -0.07823   0.00000   0.04472  -0.04676   0.00265
  22        3PX         0.00000   0.03090   0.00000   0.00000   0.00000
  23        3PY         0.03376   0.00000  -0.00490   0.01643  -0.00109
  24        3PZ         0.01217   0.00000   0.01041   0.00987  -0.00045
                          11        12        13        14        15
  11        6D+1        0.00078
  12        6D-1        0.00000   0.00094
  13        6D+2        0.00000   0.00000   0.00007
  14        6D-2        0.00000   0.00000   0.00000   0.00000
  15 2   H  1S          0.00000   0.01422  -0.00232   0.00000   0.38031
  16        2S          0.00000   0.00468  -0.00014   0.00000   0.10422
  17        3PX        -0.00124   0.00000   0.00000   0.00000   0.00000
  18        3PY         0.00000   0.00051  -0.00034   0.00000   0.02990
  19        3PZ         0.00000   0.00109  -0.00017   0.00000   0.01637
  20 3   H  1S          0.00000  -0.01422  -0.00232   0.00000  -0.04770
  21        2S          0.00000  -0.00468  -0.00014   0.00000  -0.03665
  22        3PX        -0.00124   0.00000   0.00000   0.00000   0.00000
  23        3PY         0.00000   0.00051   0.00034   0.00000  -0.01447
  24        3PZ         0.00000  -0.00109  -0.00017   0.00000  -0.01641
                          16        17        18        19        20
  16        2S          0.03312
  17        3PX         0.00000   0.00197
  18        3PY         0.00667   0.00000   0.00329
  19        3PZ         0.00374   0.00000   0.00079   0.00214
  20 3   H  1S         -0.03665   0.00000   0.01447  -0.01641   0.38031
  21        2S         -0.01325   0.00000   0.00159  -0.00704   0.10422
  22        3PX         0.00000   0.00197   0.00000   0.00000   0.00000
  23        3PY        -0.00159   0.00000  -0.00273   0.00039  -0.02990
  24        3PZ        -0.00704   0.00000  -0.00039  -0.00037   0.01637
                          21        22        23        24
  21        2S          0.03312
  22        3PX         0.00000   0.00197
  23        3PY        -0.00667   0.00000   0.00329
  24        3PZ         0.00374   0.00000  -0.00079   0.00214
    Full Mulliken population analysis:
                           1         2         3         4         5
   1 1   O  1S          2.13349
   2        2S         -0.09532   0.71362
   3        3S         -0.04096   0.36082   0.41912
   4        4PX         0.00000   0.00000   0.00000   0.80875
   5        4PY         0.00000   0.00000   0.00000   0.00000   0.51213
   6        4PZ         0.00000   0.00000   0.00000   0.00000   0.00000
   7        5PX         0.00000   0.00000   0.00000   0.31449   0.00000
   8        5PY         0.00000   0.00000   0.00000   0.00000   0.10555
   9        5PZ         0.00000   0.00000   0.00000   0.00000   0.00000
  10        6D 0        0.00000  -0.00000  -0.00000   0.00000   0.00000
  11        6D+1        0.00000   0.00000   0.00000   0.00000   0.00000
  12        6D-1        0.00000   0.00000   0.00000   0.00000   0.00000
  13        6D+2       -0.00000   0.00000   0.00000   0.00000   0.00000
  14        6D-2        0.00000   0.00000   0.00000   0.00000   0.00000
  15 2   H  1S         -0.00315   0.04171  -0.02342   0.00000   0.07039
  16        2S          0.00081  -0.00620  -0.03061   0.00000   0.00902
  17        3PX         0.00000   0.00000   0.00000   0.00689   0.00000
  18        3PY        -0.00107   0.00738  -0.00051   0.00000   0.00197
  19        3PZ        -0.00083   0.00606   0.00389   0.00000   0.00692
  20 3   H  1S         -0.00315   0.04171  -0.02342   0.00000   0.07039
  21        2S          0.00081  -0.00620  -0.03061   0.00000   0.00902
  22        3PX         0.00000   0.00000   0.00000   0.00689   0.00000
  23        3PY        -0.00107   0.00738  -0.00051   0.00000   0.00197
  24        3PZ        -0.00083   0.00606   0.00389   0.00000   0.00692
                           6         7         8         9        10
   6        4PZ         0.61758
   7        5PX         0.00000   0.48502
   8        5PY         0.00000   0.00000   0.08628
   9        5PZ         0.18373   0.00000   0.00000   0.22795
  10        6D 0        0.00000   0.00000   0.00000   0.00000   0.00071
  11        6D+1        0.00000   0.00000   0.00000   0.00000   0.00000
  12        6D-1        0.00000   0.00000   0.00000   0.00000   0.00000
  13        6D+2        0.00000   0.00000   0.00000   0.00000  -0.00000
  14        6D-2        0.00000   0.00000   0.00000   0.00000   0.00000
  15 2   H  1S          0.04695   0.00000   0.06553   0.05435   0.00018
  16        2S          0.00523   0.00000   0.01371   0.01157   0.00001
  17        3PX         0.00000   0.01097   0.00000   0.00000   0.00000
  18        3PY         0.00922   0.00000  -0.00027   0.00398   0.00019
  19        3PZ        -0.00058   0.00000   0.00252   0.00157   0.00008
  20 3   H  1S          0.04695   0.00000   0.06553   0.05435   0.00018
  21        2S          0.00523   0.00000   0.01371   0.01157   0.00001
  22        3PX         0.00000   0.01097   0.00000   0.00000   0.00000
  23        3PY         0.00922   0.00000  -0.00027   0.00398   0.00019
  24        3PZ        -0.00058   0.00000   0.00252   0.00157   0.00008
                          11        12        13        14        15
  11        6D+1        0.00078
  12        6D-1        0.00000   0.00094
  13        6D+2        0.00000   0.00000   0.00007
  14        6D-2        0.00000   0.00000   0.00000   0.00000
  15 2   H  1S          0.00000   0.00269   0.00027   0.00000   0.38031
  16        2S          0.00000   0.00010   0.00000   0.00000   0.07137
  17        3PX         0.00023   0.00000   0.00000   0.00000   0.00000
  18        3PY         0.00000   0.00009  -0.00000   0.00000   0.00000
  19        3PZ         0.00000   0.00007   0.00003   0.00000   0.00000
  20 3   H  1S          0.00000   0.00269   0.00027   0.00000  -0.00572
  21        2S          0.00000   0.00010   0.00000   0.00000  -0.01123
  22        3PX         0.00023   0.00000   0.00000   0.00000   0.00000
  23        3PY         0.00000   0.00009  -0.00000   0.00000   0.00203
  24        3PZ         0.00000   0.00007   0.00003   0.00000  -0.00000
                          16        17        18        19        20
  16        2S          0.03312
  17        3PX         0.00000   0.00197
  18        3PY         0.00000   0.00000   0.00329
  19        3PZ         0.00000   0.00000   0.00000   0.00214
  20 3   H  1S         -0.01123   0.00000   0.00203  -0.00000   0.38031
  21        2S         -0.00802   0.00000   0.00025  -0.00000   0.07137
  22        3PX         0.00000   0.00007   0.00000   0.00000   0.00000
  23        3PY         0.00025   0.00000   0.00057   0.00000   0.00000
  24        3PZ        -0.00000   0.00000  -0.00000  -0.00001   0.00000
                          21        22        23        24
  21        2S          0.03312
  22        3PX         0.00000   0.00197
  23        3PY         0.00000   0.00000   0.00329
  24        3PZ         0.00000   0.00000   0.00000   0.00214
     Gross orbital populations:
                           1
   1 1   O  1S          1.98871
   2        2S          1.07703
   3        3S          0.63766
   4        4PX         1.13703
   5        4PY         0.79430
   6        4PZ         0.92295
   7        5PX         0.82145
   8        5PY         0.35481
   9        5PZ         0.55463
  10        6D 0        0.00164
  11        6D+1        0.00125
  12        6D-1        0.00684
  13        6D+2        0.00068
  14        6D-2        0.00000
  15 2   H  1S          0.69226
  16        2S          0.08912
  17        3PX         0.02014
  18        3PY         0.02713
  19        3PZ         0.02186
  20 3   H  1S          0.69226
  21        2S          0.08912
  22        3PX         0.02014
  23        3PY         0.02713
  24        3PZ         0.02186
          Condensed to atoms (all electrons):
               1          2          3
     1  O    7.663095   0.317951   0.317951
     2  H    0.317951   0.563556  -0.031005
     3  H    0.317951  -0.031005   0.563556
 Mulliken charges:
               1
     1  O   -0.298997
     2  H    0.149498
     3  H    0.149498
 Sum of Mulliken charges =  -0.00000
 Mulliken charges with hydrogens summed into heavy atoms:
               1
     1  O   -0.000000
 Electronic spatial extent (au):  <R**2>=             19.1802
 Charge=             -0.0000 electrons
 Dipole moment (field-independent basis, Debye):
    X=              0.0000    Y=              0.0000    Z=             -1.9845  Tot=              1.9845
 Quadrupole moment (field-independent basis, Debye-Ang):
   XX=             -7.0296   YY=             -4.4080   ZZ=             -5.9370
   XY=              0.0000   XZ=             -0.0000   YZ=             -0.0000
 Traceless Quadrupole moment (field-independent basis, Debye-Ang):
   XX=             -1.2381   YY=              1.3836   ZZ=             -0.1455
   XY=              0.0000   XZ=             -0.0000   YZ=             -0.0000
 Octapole moment (field-independent basis, Debye-Ang**2):
  XXX=             -0.0000  YYY=              0.0000  ZZZ=             -1.0433  XYY=              0.0000
  XXY=             -0.0000  XXZ=             -0.2691  XZZ=             -0.0000  YZZ=              0.0000
  YYZ=             -1.0952  XYZ=             -0.0000
 Hexadecapole moment (field-independent basis, Debye-Ang**3):
 XXXX=             -4.8756 YYYY=             -6.3187 ZZZZ=             -6.2603 XXXY=             -0.0000
 XXXZ=              0.0000 YYYX=             -0.0000 YYYZ=             -0.0000 ZZZX=              0.0000
 ZZZY=              0.0000 XXYY=             -2.1137 XXZZ=             -1.9134 YYZZ=             -1.7531
 XXYZ=              0.0000 YYXZ=             -0.0000 ZZXY=             -0.0000
 N-N= 9.026115096908D+00 E-N=-1.985530130358D+02  KE= 7.577852167147D+01
 Symmetry A1   KE= 6.763779690743D+01
 Symmetry A2   KE= 1.535542127374D-58
 Symmetry B1   KE= 4.609474175201D+00
 Symmetry B2   KE= 3.531250588839D+00
 Orbital energies and kinetic energies (alpha):
                                 1                 2
   1         (A1)--O         -18.763261         28.756040
   2         (A1)--O          -0.891121          2.792375
   3         (B2)--O          -0.455580          1.765625
   4         (A1)--O          -0.314022          2.270483
   5         (B1)--O          -0.233533          2.304737
   6         (A1)--V           0.028453          1.086465
   7         (B2)--V           0.104755          1.180519
   8         (B2)--V           0.506396          1.810181
   9         (A1)--V           0.570086          2.378464
  10         (A1)--V           0.861270          3.469747
  11         (B1)--V           0.861742          3.670359
  12         (B2)--V           0.954144          2.910297
  13         (A1)--V           1.040670          3.317893
  14         (A2)--V           1.285597          2.133346
  15         (A1)--V           1.325699          2.365004
  16         (B1)--V           1.472821          2.283926
  17         (B2)--V           1.716118          2.475843
  18         (B2)--V           2.099179          3.985838
  19         (A1)--V           2.149614          4.356356
  20         (B1)--V           2.865567          4.453070
  21         (A2)--V           2.890517          4.515436
  22         (A1)--V           3.078620          4.725890
  23         (A1)--V           3.374730          5.422534
  24         (B2)--V           3.719053          5.812664
 Total kinetic energy from orbitals= 7.577852167147D+01
 No NMR shielding tensors so no spin-rotation constants.
 Leave Link  601 at Thu Jan 11 15:43:32 2018, MaxMem=    33554432 cpu:         0.2
 (Enter /home/chemsoft/gaussian/g09e01/g09/l9999.exe)

 This type of calculation cannot be archived.

 Writing a WFNX file to "df-bp86svp.wfx"


 CLIMB THE MOUNTAINS AND GET THEIR GOOD TIDINGS.
 NATURE'S PEACE WILL FLOW INTO YOU AS SUNSHINE FLOWS INTO TREES.
 THE WINDS WILL BLOW THEIR OWN FRESHNESS INTO YOU, 
 AND CARES WILL DROP OFF LIKE AUTUMN LEAVES.

                                         -- JOHN MUIR
 Job cpu time:       0 days  0 hours  0 minutes  1.7 seconds.
 File lengths (MBytes):  RWF=      5 Int=      0 D2E=      0 Chk=      1 Scr=      1
 Normal termination of Gaussian 09 at Thu Jan 11 15:43:32 2018.
