 Generated by Multiwfn
GAUSSIAN              1 MOL ORBITALS      7 PRIMITIVES        1 NUCLEI
  H    1    (CENTRE  1)   1.53806481 -0.88800213 -0.56399758  CHARGE =  1.0
CENTRE ASSIGNMENTS    1  1  1  1  1  1  1
TYPE ASSIGNMENTS      1  1  1  1  2  3  4
EXPONENTS  0.1301070D+02 0.1962257D+01 0.4445380D+00 0.1219496D+00 0.8000000D+00
EXPONENTS  0.8000000D+00 0.8000000D+00
MO    1     MO 0.0        OCC NO =    1.0000000  ORB. ENERGY =   -0.276680
  0.94463177D-01  0.16025107D+00  0.18243741D+00  0.75210120D-01  0.00000000D+00
  0.00000000D+00  0.00000000D+00
END DATA
 THE  HF ENERGY =      0.000000000000 THE VIRIAL(-V/T)=   1.00000000
