 Entering Gaussian System, Link 0=g09
 Input=ammonia.df-bp86svp.gjf
 Output=ammonia.df-bp86svp.log
 Initial command:
 /home/chemsoft/gaussian/g09e01/g09/l1.exe "/scr/martin/g09job.inter1515656028/Gau-18713.inp" -scrdir="/scr/martin/g09job.inter1515656028/"
 Entering Link 1 = /home/chemsoft/gaussian/g09e01/g09/l1.exe PID=     18714.
  
 Copyright (c) 1988,1990,1992,1993,1995,1998,2003,2009,2015,
            Gaussian, Inc.  All Rights Reserved.
  
 This is part of the Gaussian(R) 09 program.  It is based on
 the Gaussian(R) 03 system (copyright 2003, Gaussian, Inc.),
 the Gaussian(R) 98 system (copyright 1998, Gaussian, Inc.),
 the Gaussian(R) 94 system (copyright 1995, Gaussian, Inc.),
 the Gaussian 92(TM) system (copyright 1992, Gaussian, Inc.),
 the Gaussian 90(TM) system (copyright 1990, Gaussian, Inc.),
 the Gaussian 88(TM) system (copyright 1988, Gaussian, Inc.),
 the Gaussian 86(TM) system (copyright 1986, Carnegie Mellon
 University), and the Gaussian 82(TM) system (copyright 1983,
 Carnegie Mellon University). Gaussian is a federally registered
 trademark of Gaussian, Inc.
  
 This software contains proprietary and confidential information,
 including trade secrets, belonging to Gaussian, Inc.
  
 This software is provided under written license and may be
 used, copied, transmitted, or stored only in accord with that
 written license.
  
 The following legend is applicable only to US Government
 contracts under FAR:
  
                    RESTRICTED RIGHTS LEGEND
  
 Use, reproduction and disclosure by the US Government is
 subject to restrictions as set forth in subparagraphs (a)
 and (c) of the Commercial Computer Software - Restricted
 Rights clause in FAR 52.227-19.
  
 Gaussian, Inc.
 340 Quinnipiac St., Bldg. 40, Wallingford CT 06492
  
  
 ---------------------------------------------------------------
 Warning -- This program may not be used in any manner that
 competes with the business of Gaussian, Inc. or will provide
 assistance to any competitor of Gaussian, Inc.  The licensee
 of this program is prohibited from giving any competitor of
 Gaussian, Inc. access to this program.  By using this program,
 the user acknowledges that Gaussian, Inc. is engaged in the
 business of creating and licensing software in the field of
 computational chemistry and represents and warrants to the
 licensee that it is not a competitor of Gaussian, Inc. and that
 it will not use this program in any manner prohibited above.
 ---------------------------------------------------------------
  

 Cite this work as:
 Gaussian 09, Revision E.01,
 M. J. Frisch, G. W. Trucks, H. B. Schlegel, G. E. Scuseria, 
 M. A. Robb, J. R. Cheeseman, G. Scalmani, V. Barone, B. Mennucci, 
 G. A. Petersson, H. Nakatsuji, M. Caricato, X. Li, H. P. Hratchian, 
 A. F. Izmaylov, J. Bloino, G. Zheng, J. L. Sonnenberg, M. Hada, 
 M. Ehara, K. Toyota, R. Fukuda, J. Hasegawa, M. Ishida, T. Nakajima, 
 Y. Honda, O. Kitao, H. Nakai, T. Vreven, J. A. Montgomery, Jr., 
 J. E. Peralta, F. Ogliaro, M. Bearpark, J. J. Heyd, E. Brothers, 
 K. N. Kudin, V. N. Staroverov, T. Keith, R. Kobayashi, J. Normand, 
 K. Raghavachari, A. Rendell, J. C. Burant, S. S. Iyengar, J. Tomasi, 
 M. Cossi, N. Rega, J. M. Millam, M. Klene, J. E. Knox, J. B. Cross, 
 V. Bakken, C. Adamo, J. Jaramillo, R. Gomperts, R. E. Stratmann, 
 O. Yazyev, A. J. Austin, R. Cammi, C. Pomelli, J. W. Ochterski, 
 R. L. Martin, K. Morokuma, V. G. Zakrzewski, G. A. Voth, 
 P. Salvador, J. J. Dannenberg, S. Dapprich, A. D. Daniels, 
 O. Farkas, J. B. Foresman, J. V. Ortiz, J. Cioslowski, 
 and D. J. Fox, Gaussian, Inc., Wallingford CT, 2013.
 
 ******************************************
 Gaussian 09:  ES64L-G09RevE.01 30-Nov-2015
                11-Jan-2018 
 ******************************************
 %chk=ammonia.df-bp86svp.chk
 %nproc=4
 Will use up to    4 processors via shared memory.
 %mem=16000MB
 ----------------------------------------------------------------------
 #P BP86/def2SVP/W06 DenFit opt(MaxCycle=100) scf(xqc,MaxConventionalCy
 cle=500) int(ultrafinegrid) gfinput gfoldprint iop(6/7=3) symmetry(loo
 se) pop=full pop=nbo6
 ----------------------------------------------------------------------
 1/6=100,14=-1,18=20,19=15,26=4,38=1/1,3;
 2/9=110,12=2,17=4,18=3,40=1/2;
 3/5=43,7=101,11=2,16=1,24=11,25=1,30=1,71=1,74=404,75=-5,82=40/1,2,3;
 4//1;
 5/5=2,8=3,13=1,38=5,85=500/2,8;
 6/7=3,28=1,40=1,113=1,114=1,124=3103/1,12;
 7//1,2,3,16;
 1/6=100,14=-1,18=20,19=15,26=4/3(2);
 2/9=110/2;
 99//99;
 2/9=110/2;
 3/5=43,7=101,11=2,16=1,25=1,30=1,71=1,74=404,75=-5,82=40/1,2,3;
 4/5=5,16=3,69=1/1;
 5/5=2,8=3,13=1,38=5,85=500/2,8;
 7//1,2,3,16;
 1/6=100,14=-1,18=20,19=15,26=4/3(-5);
 2/9=110/2;
 6/7=3,19=2,28=1,40=1,113=1,114=1,124=3103/1,12;
 99/9=1/99;
 Leave Link    1 at Thu Jan 11 16:33:49 2018, MaxMem=  2097152000 cpu:         0.5
 (Enter /home/chemsoft/gaussian/g09e01/g09/l101.exe)
 ------------------------
 Ammonia DF-BP86/def2-SVP
 ------------------------
 Symbolic Z-matrix:
 Charge =  0 Multiplicity = 1
 N                     0.        0.       -0.07057 
 H                    -0.93718   0.        0.32685 
 H                     0.46859   0.81162   0.32685 
 H                     0.46859  -0.81162   0.32685 
 
 NAtoms=      4 NQM=        4 NQMF=       0 NMMI=      0 NMMIF=      0
                NMic=       0 NMicF=      0.
                    Isotopes and Nuclear Properties:
 (Nuclear quadrupole moments (NQMom) in fm**2, nuclear magnetic moments (NMagM)
  in nuclear magnetons)

  Atom         1           2           3           4
 IAtWgt=          14           1           1           1
 AtmWgt=  14.0030740   1.0078250   1.0078250   1.0078250
 NucSpn=           2           1           1           1
 AtZEff=   0.0000000   0.0000000   0.0000000   0.0000000
 NQMom=    2.0440000   0.0000000   0.0000000   0.0000000
 NMagM=    0.4037610   2.7928460   2.7928460   2.7928460
 AtZNuc=   7.0000000   1.0000000   1.0000000   1.0000000
 Leave Link  101 at Thu Jan 11 16:33:49 2018, MaxMem=  2097152000 cpu:         2.6
 (Enter /home/chemsoft/gaussian/g09e01/g09/l103.exe)

 GradGradGradGradGradGradGradGradGradGradGradGradGradGradGradGradGradGrad
 Berny optimization.
 Initialization pass.
                           ----------------------------
                           !    Initial Parameters    !
                           ! (Angstroms and Degrees)  !
 --------------------------                            --------------------------
 ! Name  Definition              Value          Derivative Info.                !
 --------------------------------------------------------------------------------
 ! R1    R(1,2)                  1.018          estimate D2E/DX2                !
 ! R2    R(1,3)                  1.018          estimate D2E/DX2                !
 ! R3    R(1,4)                  1.018          estimate D2E/DX2                !
 ! A1    A(2,1,3)              105.7458         estimate D2E/DX2                !
 ! A2    A(2,1,4)              105.7458         estimate D2E/DX2                !
 ! A3    A(3,1,4)              105.7458         estimate D2E/DX2                !
 ! D1    D(2,1,4,3)           -111.8661         estimate D2E/DX2                !
 --------------------------------------------------------------------------------
 Trust Radius=3.00D-01 FncErr=1.00D-07 GrdErr=1.00D-06
 Number of steps in this run=    100 maximum allowed number of steps=    100.
 GradGradGradGradGradGradGradGradGradGradGradGradGradGradGradGradGradGrad

 Leave Link  103 at Thu Jan 11 16:33:49 2018, MaxMem=  2097152000 cpu:         0.1
 (Enter /home/chemsoft/gaussian/g09e01/g09/l202.exe)
                          Input orientation:                          
 ---------------------------------------------------------------------
 Center     Atomic      Atomic             Coordinates (Angstroms)
 Number     Number       Type             X           Y           Z
 ---------------------------------------------------------------------
      1          7           0        0.000000    0.000000   -0.070572
      2          1           0       -0.937180    0.000000    0.326851
      3          1           0        0.468590    0.811621    0.326851
      4          1           0        0.468590   -0.811621    0.326851
 ---------------------------------------------------------------------
                    Distance matrix (angstroms):
                    1          2          3          4
     1  N    0.000000
     2  H    1.017964   0.000000
     3  H    1.017964   1.623243   0.000000
     4  H    1.017964   1.623243   1.623243   0.000000
 Stoichiometry    H3N
 Framework group  C3V[C3(N),3SGV(H)]
 Deg. of freedom     2
 Full point group                 C3V     NOp   6
 Largest Abelian subgroup         CS      NOp   2
 Largest concise Abelian subgroup CS      NOp   2
                         Standard orientation:                         
 ---------------------------------------------------------------------
 Center     Atomic      Atomic             Coordinates (Angstroms)
 Number     Number       Type             X           Y           Z
 ---------------------------------------------------------------------
      1          7           0        0.000000    0.000000    0.119227
      2          1           0        0.000000    0.937180   -0.278196
      3          1           0       -0.811621   -0.468590   -0.278196
      4          1           0        0.811621   -0.468590   -0.278196
 ---------------------------------------------------------------------
 Rotational constants (GHZ):    293.7377022    293.7377022    190.3115482
 Leave Link  202 at Thu Jan 11 16:33:49 2018, MaxMem=  2097152000 cpu:         0.0
 (Enter /home/chemsoft/gaussian/g09e01/g09/l301.exe)
 Standard basis: def2SVP (5D, 7F)
 ======================================================================================================
                                       Pseudopotential Parameters
 ======================================================================================================
  Center     Atomic      Valence      Angular      Power
  Number     Number     Electrons     Momentum     of R      Exponent        Coefficient   SO-Coeffient
 ======================================================================================================
    1          7
                                   No pseudopotential on this center.
    2          1
                                   No pseudopotential on this center.
    3          1
                                   No pseudopotential on this center.
    4          1
                                   No pseudopotential on this center.
 ======================================================================================================
 Ernie: Thresh=  0.10000D-02 Tol=  0.10000D-05 Strict=F.
 AO basis set in the form of general basis input (Overlap normalization):
      1 0
 S   5 1.00       0.000000000000
      0.1712841585D+04 -0.5447799580D-02
      0.2576481268D+03 -0.4062717463D-01
      0.5845824585D+02 -0.1811196225D+00
      0.1619836791D+02 -0.4684397556D+00
      0.5005260081D+01 -0.4461684629D+00
 S   1 1.00       0.000000000000
      0.5873185657D+00  0.1000000000D+01
 S   1 1.00       0.000000000000
      0.1876459225D+00  0.1000000000D+01
 P   3 1.00       0.000000000000
      0.1357147023D+02 -0.5884811697D-01
      0.2925737287D+01 -0.3202462476D+00
      0.7992775075D+00 -0.7532822652D+00
 P   1 1.00       0.000000000000
      0.2195434803D+00  0.1000000000D+01
 D   1 1.00       0.000000000000
      0.1000000000D+01  0.1000000000D+01
 ****
      2 0
 S   3 1.00       0.000000000000
      0.1301070100D+02  0.3348548481D-01
      0.1962257200D+01  0.2347218709D+00
      0.4445379600D+00  0.8137702853D+00
 S   1 1.00       0.000000000000
      0.1219496200D+00  0.1000000000D+01
 P   1 1.00       0.000000000000
      0.8000000000D+00  0.1000000000D+01
 ****
      3 0
 S   3 1.00       0.000000000000
      0.1301070100D+02  0.3348548481D-01
      0.1962257200D+01  0.2347218709D+00
      0.4445379600D+00  0.8137702853D+00
 S   1 1.00       0.000000000000
      0.1219496200D+00  0.1000000000D+01
 P   1 1.00       0.000000000000
      0.8000000000D+00  0.1000000000D+01
 ****
      4 0
 S   3 1.00       0.000000000000
      0.1301070100D+02  0.3348548481D-01
      0.1962257200D+01  0.2347218709D+00
      0.4445379600D+00  0.8137702853D+00
 S   1 1.00       0.000000000000
      0.1219496200D+00  0.1000000000D+01
 P   1 1.00       0.000000000000
      0.8000000000D+00  0.1000000000D+01
 ****

 ***********************************************************************************************************************************
 *             ATOMIC CENTER             *        ATOMIC ORBITAL       *                     GAUSSIAN FUNCTIONS                    *
 ***********************************************************************************************************************************
 *                                       * FUNCTION    SHELL    SCALE  *                                                           *
 *    ATOM   X-COORD  Y-COORD  Z-COORD   *  NUMBER     TYPE     FACTOR *  EXPONENT    S-COEF      P-COEF      D-COEF      F-COEF   *
 ***********************************************************************************************************************************
 *     N      0.00000  0.00000  0.22531                                                                                            *
+                                                1   S           1.00                                                               
+                                                                      0.171284D+04-.103376D+010.000000D+000.000000D+000.000000D+00 
 *                                                                     0.257648D+03-.186207D+010.000000D+000.000000D+000.000000D+00*
 *                                                                     0.584582D+02-.272904D+010.000000D+000.000000D+000.000000D+00*
 *                                                                     0.161984D+02-.269567D+010.000000D+000.000000D+000.000000D+00*
 *                                                                     0.500526D+01-.106409D+010.000000D+000.000000D+000.000000D+00*
 *                                               2   S           1.00                                                              *
+                                                                      0.587319D+000.478151D+000.000000D+000.000000D+000.000000D+00 
 *                                               3   S           1.00                                                              *
+                                                                      0.187646D+000.203196D+000.000000D+000.000000D+000.000000D+00 
 *                                           4-  6   P           1.00                                                              *
+                                                                      0.135715D+020.000000D+00-.218502D+010.000000D+000.000000D+00 
 *                                                                     0.292574D+010.000000D+00-.174670D+010.000000D+000.000000D+00*
 *                                                                     0.799278D+000.000000D+00-.811465D+000.000000D+000.000000D+00*
 *                                           7-  9   P           1.00                                                              *
+                                                                      0.219543D+000.000000D+000.214211D+000.000000D+000.000000D+00 
 *                                          10- 14   D           1.00                                                              *
+                                                                      0.100000D+010.000000D+000.000000D+000.164592D+010.000000D+00 
 *---------------------------------------------------------------------------------------------------------------------------------*
 *     H      0.00000  1.77101 -0.52571                                                                                            *
+                                               15   S           1.00                                                               
+                                                                      0.130107D+020.163490D+000.000000D+000.000000D+000.000000D+00 
 *                                                                     0.196226D+010.277352D+000.000000D+000.000000D+000.000000D+00*
 *                                                                     0.444538D+000.315750D+000.000000D+000.000000D+000.000000D+00*
 *                                              16   S           1.00                                                              *
+                                                                      0.121950D+000.147077D+000.000000D+000.000000D+000.000000D+00 
 *                                          17- 19   P           1.00                                                              *
+                                                                      0.800000D+000.000000D+000.107846D+010.000000D+000.000000D+00 
 *---------------------------------------------------------------------------------------------------------------------------------*
 *     H     -1.53374 -0.88551 -0.52571                                                                                            *
+                                               20   S           1.00                                                               
+                                                                      0.130107D+020.163490D+000.000000D+000.000000D+000.000000D+00 
 *                                                                     0.196226D+010.277352D+000.000000D+000.000000D+000.000000D+00*
 *                                                                     0.444538D+000.315750D+000.000000D+000.000000D+000.000000D+00*
 *                                              21   S           1.00                                                              *
+                                                                      0.121950D+000.147077D+000.000000D+000.000000D+000.000000D+00 
 *                                          22- 24   P           1.00                                                              *
+                                                                      0.800000D+000.000000D+000.107846D+010.000000D+000.000000D+00 
 *---------------------------------------------------------------------------------------------------------------------------------*
 *     H      1.53374 -0.88551 -0.52571                                                                                            *
+                                               25   S           1.00                                                               
+                                                                      0.130107D+020.163490D+000.000000D+000.000000D+000.000000D+00 
 *                                                                     0.196226D+010.277352D+000.000000D+000.000000D+000.000000D+00*
 *                                                                     0.444538D+000.315750D+000.000000D+000.000000D+000.000000D+00*
 *                                              26   S           1.00                                                              *
+                                                                      0.121950D+000.147077D+000.000000D+000.000000D+000.000000D+00 
 *                                          27- 29   P           1.00                                                              *
+                                                                      0.800000D+000.000000D+000.107846D+010.000000D+000.000000D+00 
 ***********************************************************************************************************************************
 There are    20 symmetry adapted cartesian basis functions of A'  symmetry.
 There are    10 symmetry adapted cartesian basis functions of A"  symmetry.
 There are    19 symmetry adapted basis functions of A'  symmetry.
 There are    10 symmetry adapted basis functions of A"  symmetry.
    29 basis functions,    46 primitive gaussians,    30 cartesian basis functions
     5 alpha electrons        5 beta electrons
       nuclear repulsion energy        11.8946157701 Hartrees.
 IExCor=  404 DFT=T Ex=B Corr=P86 ExCW=0 ScaHFX=  0.000000
 ScaDFX=  1.000000  1.000000  1.000000  1.000000 ScalE2=  1.000000  1.000000
 IRadAn=      5 IRanWt=     -1 IRanGd=            0 ICorTp=0 IEmpDi=  4
 NAtoms=    4 NActive=    4 NUniq=    2 SFac= 4.00D+00 NAtFMM=   60 NAOKFM=F Big=F
 Integral buffers will be    131072 words long.
 Raffenetti 2 integral format.
 Two-electron integral symmetry is turned on.
 Standard density basis: W06 (5D, 7F)
    82 Density fitting functions
 Density basis set in the form of general basis input (Coulomb normalization):
      1 0
 S   7 1.00       0.000000000000
      0.2542940178D+04  0.1572679885D-02
      0.1029547295D+04  0.3977044477D-02
      0.4249053546D+03  0.1953766111D-01
      0.1784573708D+03  0.7476264413D-01
      0.7613627420D+02  0.2189767433D+00
      0.3293386530D+02  0.4216718799D+00
      0.1441554360D+02  0.2964029094D+00
 S   1 1.00       0.000000000000
      0.6371889100D+01 -0.1000000000D+01
 S   1 1.00       0.000000000000
      0.2838174200D+01  0.1000000000D+01
 S   1 1.00       0.000000000000
      0.1271179300D+01  0.1000000000D+01
 S   1 1.00       0.000000000000
      0.5712407000D+00  0.1000000000D+01
 S   1 1.00       0.000000000000
      0.2569887000D+00  0.1000000000D+01
 P   2 1.00       0.000000000000
      0.1789759900D+02 -0.1198132470D+01
      0.6534631900D+01  0.2493564618D+00
 P   1 1.00       0.000000000000
      0.2352364500D+01  0.1000000000D+01
 P   1 1.00       0.000000000000
      0.8397377000D+00  0.1000000000D+01
 P   1 1.00       0.000000000000
      0.2989335000D+00  0.1000000000D+01
 D   2 1.00       0.000000000000
      0.7690987000D+01  0.9918940482D-01
      0.2304497200D+01  0.9126124820D+00
 D   1 1.00       0.000000000000
      0.8403987000D+00  0.1000000000D+01
 D   1 1.00       0.000000000000
      0.3303797000D+00  0.1000000000D+01
 F   2 1.00       0.000000000000
      0.2333107600D+01  0.4521076083D+00
      0.8446137000D+00  0.6081562343D+00
 G   1 1.00       0.000000000000
      0.1403770000D+01 -0.1000000000D+01
 ****
      2 0
 S   3 1.00       0.000000000000
      0.1567529270D+02  0.3261158972D-01
      0.3606357800D+01  0.2298046837D+00
      0.1208001600D+01  0.7572083240D+00
 S   1 1.00       0.000000000000
      0.4726794000D+00  0.1000000000D+01
 S   1 1.00       0.000000000000
      0.2018100000D+00  0.1000000000D+01
 P   2 1.00       0.000000000000
      0.2028136500D+01  0.3618361986D+00
      0.5358730000D+00  0.7039303088D+00
 D   1 1.00       0.000000000000
      0.2216512400D+01  0.1000000000D+01
 ****
      3 0
 S   3 1.00       0.000000000000
      0.1567529270D+02  0.3261158972D-01
      0.3606357800D+01  0.2298046837D+00
      0.1208001600D+01  0.7572083240D+00
 S   1 1.00       0.000000000000
      0.4726794000D+00  0.1000000000D+01
 S   1 1.00       0.000000000000
      0.2018100000D+00  0.1000000000D+01
 P   2 1.00       0.000000000000
      0.2028136500D+01  0.3618361986D+00
      0.5358730000D+00  0.7039303088D+00
 D   1 1.00       0.000000000000
      0.2216512400D+01  0.1000000000D+01
 ****
      4 0
 S   3 1.00       0.000000000000
      0.1567529270D+02  0.3261158972D-01
      0.3606357800D+01  0.2298046837D+00
      0.1208001600D+01  0.7572083240D+00
 S   1 1.00       0.000000000000
      0.4726794000D+00  0.1000000000D+01
 S   1 1.00       0.000000000000
      0.2018100000D+00  0.1000000000D+01
 P   2 1.00       0.000000000000
      0.2028136500D+01  0.3618361986D+00
      0.5358730000D+00  0.7039303088D+00
 D   1 1.00       0.000000000000
      0.2216512400D+01  0.1000000000D+01
 ****

 There are    82 symmetry adapted density basis functions of A   symmetry.
 Leave Link  301 at Thu Jan 11 16:33:50 2018, MaxMem=  2097152000 cpu:         0.7
 (Enter /home/chemsoft/gaussian/g09e01/g09/l302.exe)
 NPDir=0 NMtPBC=     1 NCelOv=     1 NCel=       1 NClECP=     1 NCelD=      1
         NCelK=      1 NCelE2=     1 NClLst=     1 CellRange=     0.0.
 One-electron integrals computed using PRISM.
 One-electron integral symmetry used in STVInt
   6 Symmetry operations used in ECPInt.
 ECPInt:  NShTT=     120 NPrTT=     400 LenC2=     121 LenP2D=     397.
 LDataN:  DoStor=T MaxTD1= 4 Len=   56
 NBasis=    29 RedAO= T EigKep=  3.57D-02  NBF=    19    10
 NBsUse=    29 1.00D-06 EigRej= -1.00D+00 NBFU=    19    10
 NBasis=       29 NBas6D=       30 NTT=         435   NTT6D=      465
 NDBShl=       30 NDBF=         82 NDBF6D=       97  NNucDB=        0
 IDenFi=        2 ISolve=        0 FullAP=F BlkAPC=T NucTyp=        0
 TolInv= 1.00D-06 TolIt=  1.00D-10 IR12=0.
 FoFCou: FMM=F IPFlag=           0 FMFlag=           0 FMFlg1=           0
         NFxFlg=           0 DoJE=F BraDBF=T KetDBF=T FulRan=T
         wScrn=  0.000000 ICntrl=     600 IOpCl=  3 I1Cent=           6 NGrid=           0
         NMat0=    1 NMatS0=     97 NMatT0=    0 NMatD0=    1 NMtDS0=    0 NMtDT0=    0
 Petite list used in FoFCou.
 DBF EigKep=  2.23D-04 EigRej= -1.00D+00
 NDBF=     82  NBFD=    82
 NRank=    82 NBFDU=    82
 S*AI*S=  4.69510056737    
 Precomputing XC quadrature grid using
 IXCGrd= 4 IRadAn=           5 IRanWt=          -1 IRanGd=           0 AccXCQ= 0.00D+00.
 Generated NRdTot=       0 NPtTot=           0 NUsed=           0 NTot=          32
 NSgBfM=    30    30    30    30    30 MxSgAt=     4 MxSgA2=     4.
 Leave Link  302 at Thu Jan 11 16:33:50 2018, MaxMem=  2097152000 cpu:         1.4
 (Enter /home/chemsoft/gaussian/g09e01/g09/l303.exe)
 DipDrv:  MaxL=1.
 Leave Link  303 at Thu Jan 11 16:33:50 2018, MaxMem=  2097152000 cpu:         0.2
 (Enter /home/chemsoft/gaussian/g09e01/g09/l401.exe)
 ExpMin= 1.22D-01 ExpMax= 1.71D+03 ExpMxC= 2.58D+02 IAcc=3 IRadAn=         5 AccDes= 0.00D+00
 Harris functional with IExCor=  404 and IRadAn=       5 diagonalized for initial guess.
 HarFok:  IExCor=  404 AccDes= 0.00D+00 IRadAn=         5 IDoV= 1 UseB2=F ITyADJ=14
 ICtDFT=  3500011 ScaDFX=  1.000000  1.000000  1.000000  1.000000
 FoFCou: FMM=F IPFlag=           0 FMFlag=      100000 FMFlg1=           0
         NFxFlg=           0 DoJE=T BraDBF=F KetDBF=T FulRan=T
         wScrn=  0.000000 ICntrl=     500 IOpCl=  0 I1Cent=   200000004 NGrid=           0
         NMat0=    1 NMatS0=      1 NMatT0=    0 NMatD0=    1 NMtDS0=    0 NMtDT0=    0
 Petite list used in FoFCou.
 Harris En= -56.5555528906950    
 JPrj=0 DoOrth=F DoCkMO=F.
 Initial guess orbital symmetries:
       Occupied  (A1) (A1) (E) (E) (A1)
       Virtual   (A1) (E) (E) (E) (E) (A1) (A1) (E) (E) (A1) (E)
                 (E) (A2) (A1) (E) (E) (E) (E) (A1) (E) (E) (A1)
                 (E) (E)
 The electronic state of the initial guess is 1-A1.
 Leave Link  401 at Thu Jan 11 16:33:50 2018, MaxMem=  2097152000 cpu:         1.0
 (Enter /home/chemsoft/gaussian/g09e01/g09/l502.exe)
 Closed shell SCF:
 Density fitting will be used, IDenFit= 2 NucTyp=  0.
 Using DIIS extrapolation, IDIIS=  1040.
 Integral symmetry usage will be decided dynamically.
 IVT=      257426 IEndB=      257426 NGot=  2097152000 MDV=  2097146505
 LenX=  2097146505 LenY=  2097145164
 Requested convergence on RMS density matrix=1.00D-08 within 500 cycles.
 Requested convergence on MAX density matrix=1.00D-06.
 Requested convergence on             energy=1.00D-06.
 No special actions if energy rises.
 Fock matrices will be formed incrementally for  20 cycles.

 Cycle   1  Pass 0  IDiag  1:
 FoFCou: FMM=F IPFlag=           0 FMFlag=      100000 FMFlg1=           0
         NFxFlg=           0 DoJE=T BraDBF=T KetDBF=F FulRan=T
         wScrn=  0.000000 ICntrl=     500 IOpCl=  0 I1Cent=           5 NGrid=           0
         NMat0=    1 NMatS0=      1 NMatT0=    0 NMatD0=    1 NMtDS0=    0 NMtDT0=    0
 Petite list used in FoFCou.
 FoFJK:  IHMeth= 1 ICntrl=     500 DoSepK=F KAlg= 0 I1Cent=   4 FoldK=F
 IRaf= 990000000 NMat=   1 IRICut=       1 DoRegI=T DoRafI=F ISym2E= 1.
 E= -56.4357695332525    
 DIIS: error= 6.45D-02 at cycle   1 NSaved=   1.
 NSaved= 1 IEnMin= 1 EnMin= -56.4357695332525     IErMin= 1 ErrMin= 6.45D-02
 ErrMax= 6.45D-02  0.00D+00 EMaxC= 1.00D-01 BMatC= 8.15D-02 BMatP= 8.15D-02
 IDIUse=3 WtCom= 3.55D-01 WtEn= 6.45D-01
 Coeff-Com:  0.100D+01
 Coeff-En:   0.100D+01
 Coeff:      0.100D+01
 Gap=     0.121 Goal=   None    Shift=    0.000
 GapD=    0.121 DampG=1.000 DampE=0.500 DampFc=0.5000 IDamp=-1.
 Damping current iteration by 5.00D-01
 RMSDP=2.22D-02 MaxDP=2.10D-01              OVMax= 2.14D-01

 Cycle   2  Pass 0  IDiag  1:
 RMSU=  1.10D-02    CP:  9.67D-01
 E= -56.4508110934218     Delta-E=       -0.015041560169 Rises=F Damp=T
 DIIS: error= 2.05D-02 at cycle   2 NSaved=   2.
 NSaved= 2 IEnMin= 2 EnMin= -56.4508110934218     IErMin= 2 ErrMin= 2.05D-02
 ErrMax= 2.05D-02  0.00D+00 EMaxC= 1.00D-01 BMatC= 1.01D-02 BMatP= 8.15D-02
 IDIUse=3 WtCom= 7.95D-01 WtEn= 2.05D-01
 Coeff-Com:  0.255D+00 0.745D+00
 Coeff-En:   0.409D+00 0.591D+00
 Coeff:      0.287D+00 0.713D+00
 Gap=     0.229 Goal=   None    Shift=    0.000
 RMSDP=4.07D-03 MaxDP=5.93D-02 DE=-1.50D-02 OVMax= 1.39D-01

 Cycle   3  Pass 0  IDiag  1:
 RMSU=  2.13D-03    CP:  9.75D-01  6.87D-01
 E= -56.5083469838052     Delta-E=       -0.057535890383 Rises=F Damp=F
 DIIS: error= 3.71D-03 at cycle   3 NSaved=   3.
 NSaved= 3 IEnMin= 3 EnMin= -56.5083469838052     IErMin= 3 ErrMin= 3.71D-03
 ErrMax= 3.71D-03  0.00D+00 EMaxC= 1.00D-01 BMatC= 3.51D-04 BMatP= 1.01D-02
 IDIUse=3 WtCom= 9.63D-01 WtEn= 3.71D-02
 Coeff-Com:  0.719D-01 0.500D-01 0.878D+00
 Coeff-En:   0.000D+00 0.000D+00 0.100D+01
 Coeff:      0.692D-01 0.481D-01 0.883D+00
 Gap=     0.245 Goal=   None    Shift=    0.000
 RMSDP=4.63D-04 MaxDP=4.45D-03 DE=-5.75D-02 OVMax= 4.99D-03

 Cycle   4  Pass 0  IDiag  1:
 RMSU=  2.36D-04    CP:  9.76D-01  6.54D-01  9.38D-01
 E= -56.5086288205379     Delta-E=       -0.000281836733 Rises=F Damp=F
 DIIS: error= 4.29D-04 at cycle   4 NSaved=   4.
 NSaved= 4 IEnMin= 4 EnMin= -56.5086288205379     IErMin= 4 ErrMin= 4.29D-04
 ErrMax= 4.29D-04  0.00D+00 EMaxC= 1.00D-01 BMatC= 3.41D-06 BMatP= 3.51D-04
 IDIUse=3 WtCom= 9.96D-01 WtEn= 4.29D-03
 Coeff-Com:  0.802D-02-0.163D-01 0.220D+00 0.788D+00
 Coeff-En:   0.000D+00 0.000D+00 0.000D+00 0.100D+01
 Coeff:      0.798D-02-0.163D-01 0.219D+00 0.789D+00
 Gap=     0.244 Goal=   None    Shift=    0.000
 RMSDP=5.51D-05 MaxDP=4.54D-04 DE=-2.82D-04 OVMax= 6.01D-04

 Cycle   5  Pass 0  IDiag  1:
 RMSU=  2.65D-05    CP:  9.76D-01  6.53D-01  9.50D-01  8.32D-01
 E= -56.5086315873587     Delta-E=       -0.000002766821 Rises=F Damp=F
 DIIS: error= 7.61D-05 at cycle   5 NSaved=   5.
 NSaved= 5 IEnMin= 5 EnMin= -56.5086315873587     IErMin= 5 ErrMin= 7.61D-05
 ErrMax= 7.61D-05  0.00D+00 EMaxC= 1.00D-01 BMatC= 1.04D-07 BMatP= 3.41D-06
 IDIUse=1 WtCom= 1.00D+00 WtEn= 0.00D+00
 Coeff-Com:  0.160D-02-0.133D-02 0.164D-01 0.557D-01 0.928D+00
 Coeff:      0.160D-02-0.133D-02 0.164D-01 0.557D-01 0.928D+00
 Gap=     0.244 Goal=   None    Shift=    0.000
 RMSDP=8.26D-06 MaxDP=6.67D-05 DE=-2.77D-06 OVMax= 9.91D-05

 Initial convergence to 1.0D-05 achieved.  Increase integral accuracy.
 Cycle   6  Pass 1  IDiag  1:
 E= -56.5086320093281     Delta-E=       -0.000000421969 Rises=F Damp=F
 DIIS: error= 2.57D-06 at cycle   1 NSaved=   1.
 NSaved= 1 IEnMin= 1 EnMin= -56.5086320093281     IErMin= 1 ErrMin= 2.57D-06
 ErrMax= 2.57D-06  0.00D+00 EMaxC= 1.00D-01 BMatC= 1.88D-10 BMatP= 1.88D-10
 IDIUse=1 WtCom= 1.00D+00 WtEn= 0.00D+00
 Coeff-Com:  0.100D+01
 Coeff:      0.100D+01
 Gap=     0.244 Goal=   None    Shift=    0.000
 RMSDP=8.26D-06 MaxDP=6.67D-05 DE=-4.22D-07 OVMax= 8.62D-06

 Cycle   7  Pass 1  IDiag  1:
 RMSU=  8.84D-07    CP:  1.00D+00
 E= -56.5086320091062     Delta-E=        0.000000000222 Rises=F Damp=F
 DIIS: error= 4.56D-06 at cycle   2 NSaved=   2.
 NSaved= 2 IEnMin= 1 EnMin= -56.5086320093281     IErMin= 1 ErrMin= 2.57D-06
 ErrMax= 4.56D-06  0.00D+00 EMaxC= 1.00D-01 BMatC= 4.46D-10 BMatP= 1.88D-10
 IDIUse=1 WtCom= 1.00D+00 WtEn= 0.00D+00
 Coeff-Com:  0.609D+00 0.391D+00
 Coeff:      0.609D+00 0.391D+00
 Gap=     0.244 Goal=   None    Shift=    0.000
 RMSDP=5.85D-07 MaxDP=5.62D-06 DE= 2.22D-10 OVMax= 5.82D-06

 Cycle   8  Pass 1  IDiag  1:
 RMSU=  1.27D-07    CP:  1.00D+00  3.55D-01
 E= -56.5086320094874     Delta-E=       -0.000000000381 Rises=F Damp=F
 DIIS: error= 2.80D-07 at cycle   3 NSaved=   3.
 NSaved= 3 IEnMin= 3 EnMin= -56.5086320094874     IErMin= 3 ErrMin= 2.80D-07
 ErrMax= 2.80D-07  0.00D+00 EMaxC= 1.00D-01 BMatC= 2.35D-12 BMatP= 1.88D-10
 IDIUse=1 WtCom= 1.00D+00 WtEn= 0.00D+00
 Coeff-Com:  0.165D+00 0.137D+00 0.698D+00
 Coeff:      0.165D+00 0.137D+00 0.698D+00
 Gap=     0.244 Goal=   None    Shift=    0.000
 RMSDP=4.09D-08 MaxDP=2.67D-07 DE=-3.81D-10 OVMax= 4.78D-07

 Cycle   9  Pass 1  IDiag  1:
 RMSU=  2.98D-08    CP:  1.00D+00  3.66D-01  7.97D-01
 E= -56.5086320094894     Delta-E=       -0.000000000002 Rises=F Damp=F
 DIIS: error= 2.76D-08 at cycle   4 NSaved=   4.
 NSaved= 4 IEnMin= 4 EnMin= -56.5086320094894     IErMin= 4 ErrMin= 2.76D-08
 ErrMax= 2.76D-08  0.00D+00 EMaxC= 1.00D-01 BMatC= 1.53D-14 BMatP= 2.35D-12
 IDIUse=1 WtCom= 1.00D+00 WtEn= 0.00D+00
 Coeff-Com:  0.964D-02 0.131D-01 0.110D+00 0.868D+00
 Coeff:      0.964D-02 0.131D-01 0.110D+00 0.868D+00
 Gap=     0.244 Goal=   None    Shift=    0.000
 RMSDP=3.34D-09 MaxDP=3.52D-08 DE=-1.96D-12 OVMax= 5.45D-08

 SCF Done:  E(RB-P86) =  -56.5086320095     A.U. after    9 cycles
            NFock=  9  Conv=0.33D-08     -V/T= 2.0105
 KE= 5.592264286427D+01 PE=-1.554758705477D+02 EE= 3.114997990385D+01
 Leave Link  502 at Thu Jan 11 16:33:54 2018, MaxMem=  2097152000 cpu:        14.7
 (Enter /home/chemsoft/gaussian/g09e01/g09/l508.exe)
 QCSCF skips out because SCF is already converged.
 Leave Link  508 at Thu Jan 11 16:33:54 2018, MaxMem=  2097152000 cpu:         0.0
 (Enter /home/chemsoft/gaussian/g09e01/g09/l601.exe)
 Copying SCF densities to generalized density rwf, IOpCl= 0 IROHF=0.

 **********************************************************************

            Population analysis using the SCF density.

 **********************************************************************

 Orbital symmetries:
       Occupied  (A1) (A1) (E) (E) (A1)
       Virtual   (A1) (E) (E) (E) (E) (A1) (A1) (E) (E) (A1) (E)
                 (E) (A2) (A1) (E) (E) (E) (E) (A1) (E) (E) (A1)
                 (E) (E)
 The electronic state is 1-A1.
 Alpha  occ. eigenvalues --  -13.98403  -0.75961  -0.40324  -0.40324  -0.20510
 Alpha virt. eigenvalues --    0.03914   0.12091   0.12091   0.47948   0.47948
 Alpha virt. eigenvalues --    0.60360   0.69245   0.78946   0.78946   0.87471
 Alpha virt. eigenvalues --    1.13951   1.13951   1.54154   1.61399   1.74189
 Alpha virt. eigenvalues --    1.74189   2.02028   2.02028   2.37587   2.72293
 Alpha virt. eigenvalues --    2.72293   2.79800   3.23679   3.23679
     Molecular Orbital Coefficients:
                           1         2         3         4         5
                        (A1)--O   (A1)--O   (E)--O    (E)--O    (A1)--O
     Eigenvalues --   -13.98403  -0.75961  -0.40324  -0.40324  -0.20510
   1 1   N  1S          0.98817   0.25960  -0.00000   0.00000  -0.10021
   2        2S         -0.04534   0.51708  -0.00000   0.00000  -0.20471
   3        3S          0.01847   0.16840  -0.00000   0.00000  -0.32591
   4        4PX         0.00000   0.00000   0.00000   0.46785   0.00000
   5        4PY        -0.00000   0.00000   0.46785   0.00000  -0.00000
   6        4PZ        -0.00391   0.11377   0.00000   0.00000   0.54270
   7        5PX         0.00000   0.00000   0.00000  -0.19033   0.00000
   8        5PY        -0.00000  -0.00000  -0.19033   0.00000  -0.00000
   9        5PZ        -0.00044  -0.00728   0.00000   0.00000  -0.44138
  10        6D 0        0.00148  -0.00218   0.00000   0.00000   0.02153
  11        6D+1        0.00000   0.00000   0.00000   0.02149   0.00000
  12        6D-1       -0.00000   0.00000   0.02149   0.00000   0.00000
  13        6D+2       -0.00000  -0.00000   0.00979   0.00000   0.00000
  14        6D-2        0.00000   0.00000   0.00000   0.00979   0.00000
  15 2   H  1S          0.00359   0.19548  -0.37602   0.00000   0.08656
  16        2S         -0.00302   0.02483  -0.15147   0.00000   0.05679
  17        3PX         0.00000   0.00000   0.00000  -0.02201   0.00000
  18        3PY        -0.00347  -0.02630   0.01492   0.00000  -0.00861
  19        3PZ         0.00148   0.00368  -0.01027   0.00000  -0.02295
  20 3   H  1S          0.00359   0.19548   0.18801   0.32564   0.08656
  21        2S         -0.00302   0.02483   0.07573   0.13117   0.05679
  22        3PX         0.00300   0.02278   0.01599   0.00568   0.00746
  23        3PY         0.00173   0.01315  -0.01278   0.01599   0.00431
  24        3PZ         0.00148   0.00368   0.00514   0.00889  -0.02295
  25 4   H  1S          0.00359   0.19548   0.18801  -0.32564   0.08656
  26        2S         -0.00302   0.02483   0.07573  -0.13117   0.05679
  27        3PX        -0.00300  -0.02278  -0.01599   0.00568  -0.00746
  28        3PY         0.00173   0.01315  -0.01278  -0.01599   0.00431
  29        3PZ         0.00148   0.00368   0.00514  -0.00889  -0.02295
                           6         7         8         9        10
                        (A1)--V   (E)--V    (E)--V    (E)--V    (E)--V
     Eigenvalues --     0.03914   0.12091   0.12091   0.47948   0.47948
   1 1   N  1S          0.13325   0.00000   0.00000   0.00000   0.00000
   2        2S          0.24359   0.00000   0.00000   0.00000   0.00000
   3        3S          1.41646   0.00000   0.00000   0.00000  -0.00000
   4        4PX         0.00000  -0.40470   0.00000  -0.13288   0.00000
   5        4PY        -0.00000   0.00000   0.40470   0.00000   0.13288
   6        4PZ         0.19554   0.00000   0.00000   0.00000   0.00000
   7        5PX         0.00000   0.76993   0.00000   0.56613   0.00000
   8        5PY         0.00000   0.00000  -0.76993   0.00000  -0.56613
   9        5PZ        -0.32993   0.00000   0.00000   0.00000   0.00000
  10        6D 0        0.00496   0.00000  -0.00000   0.00000   0.00000
  11        6D+1        0.00000  -0.00772   0.00000   0.06435   0.00000
  12        6D-1       -0.00000   0.00000   0.00772   0.00000  -0.06435
  13        6D+2       -0.00000   0.00000  -0.00838   0.00000  -0.09488
  14        6D-2        0.00000   0.00838   0.00000   0.09488   0.00000
  15 2   H  1S         -0.08986   0.00000   0.14467   0.00000   1.06812
  16        2S         -0.75592   0.00000   1.54590   0.00000  -0.78688
  17        3PX         0.00000   0.00826   0.00000   0.09776   0.00000
  18        3PY        -0.01061   0.00000   0.01059   0.00000   0.05218
  19        3PZ         0.00241   0.00000  -0.00873   0.00000  -0.04957
  20 3   H  1S         -0.08986   0.12528  -0.07233   0.92502  -0.53406
  21        2S         -0.75592   1.33879  -0.77295  -0.68146   0.39344
  22        3PX         0.00918  -0.00587   0.00816  -0.01469   0.06492
  23        3PY         0.00530  -0.00816  -0.00355  -0.06492  -0.06027
  24        3PZ         0.00241  -0.00756   0.00437  -0.04293   0.02479
  25 4   H  1S         -0.08986  -0.12528  -0.07233  -0.92502  -0.53406
  26        2S         -0.75592  -1.33879  -0.77295   0.68146   0.39344
  27        3PX        -0.00918  -0.00587  -0.00816  -0.01469  -0.06492
  28        3PY         0.00530   0.00816  -0.00355   0.06492  -0.06027
  29        3PZ         0.00241   0.00756   0.00437   0.04293   0.02479
                          11        12        13        14        15
                        (A1)--V   (A1)--V   (E)--V    (E)--V    (A1)--V
     Eigenvalues --     0.60360   0.69245   0.78946   0.78946   0.87471
   1 1   N  1S         -0.17299  -0.15944   0.00000  -0.00000  -0.19255
   2        2S         -0.77245  -0.78855   0.00000  -0.00000  -1.55588
   3        3S          1.19090   0.68000   0.00000   0.00000   3.72903
   4        4PX         0.00000   0.00000   0.88763   0.00000   0.00000
   5        4PY        -0.00000  -0.00000   0.00000   0.88763  -0.00000
   6        4PZ        -0.38663   0.86000   0.00000  -0.00000  -0.22729
   7        5PX         0.00000   0.00000   1.75304   0.00000   0.00000
   8        5PY        -0.00000  -0.00000   0.00000   1.75304  -0.00000
   9        5PZ        -0.28145   0.98972   0.00000  -0.00000  -0.87516
  10        6D 0       -0.08314  -0.00234   0.00000   0.00000   0.09203
  11        6D+1        0.00000   0.00000  -0.03699   0.00000   0.00000
  12        6D-1       -0.00000   0.00000   0.00000  -0.03699  -0.00000
  13        6D+2       -0.00000   0.00000   0.00000  -0.04383   0.00000
  14        6D-2        0.00000   0.00000  -0.04383   0.00000   0.00000
  15 2   H  1S          0.59977   0.18627   0.00000  -0.06025  -0.63244
  16        2S         -0.62446  -0.11398   0.00000  -1.29427  -0.59444
  17        3PX         0.00000   0.00000   0.00306   0.00000   0.00000
  18        3PY         0.17309  -0.01256   0.00000   0.20697   0.00557
  19        3PZ         0.00827   0.00769   0.00000  -0.09475  -0.15030
  20 3   H  1S          0.59977   0.18627   0.05217   0.03012  -0.63244
  21        2S         -0.62446  -0.11398   1.12087   0.64714  -0.59444
  22        3PX        -0.14990   0.01088   0.15599   0.08829  -0.00482
  23        3PY        -0.08654   0.00628   0.08829   0.05404  -0.00278
  24        3PZ         0.00827   0.00769   0.08206   0.04738  -0.15030
  25 4   H  1S          0.59977   0.18627  -0.05217   0.03012  -0.63244
  26        2S         -0.62446  -0.11398  -1.12087   0.64714  -0.59444
  27        3PX         0.14990  -0.01088   0.15599  -0.08829   0.00482
  28        3PY        -0.08654   0.00628  -0.08829   0.05404  -0.00278
  29        3PZ         0.00827   0.00769  -0.08206   0.04738  -0.15030
                          16        17        18        19        20
                        (E)--V    (E)--V    (A2)--V   (A1)--V   (E)--V
     Eigenvalues --     1.13951   1.13951   1.54154   1.61399   1.74189
   1 1   N  1S          0.00000   0.00000   0.00000  -0.09078   0.00000
   2        2S          0.00000   0.00000   0.00000  -0.85056   0.00000
   3        3S          0.00000   0.00000   0.00000   1.73707   0.00000
   4        4PX         0.01946   0.00000   0.00000   0.00000   0.03247
   5        4PY         0.00000  -0.01946   0.00000   0.00000   0.00000
   6        4PZ         0.00000  -0.00000   0.00000  -0.07507   0.00000
   7        5PX        -0.34194   0.00000  -0.00000   0.00000   0.97394
   8        5PY         0.00000   0.34194   0.00000   0.00000   0.00000
   9        5PZ         0.00000  -0.00000   0.00000  -1.00733   0.00000
  10        6D 0        0.00000  -0.00000   0.00000  -0.29607   0.00000
  11        6D+1       -0.20102   0.00000   0.00000   0.00000   0.09480
  12        6D-1        0.00000   0.20102   0.00000  -0.00000   0.00000
  13        6D+2        0.00000  -0.15286   0.00000  -0.00000   0.00000
  14        6D-2        0.15286   0.00000   0.00000   0.00000  -0.06484
  15 2   H  1S          0.00000  -0.16653   0.00000  -0.50003   0.00000
  16        2S          0.00000  -0.06156   0.00000  -0.18884   0.00000
  17        3PX         0.47448   0.00000   0.61216   0.00000  -0.65428
  18        3PY         0.00000   0.20705   0.00000   0.05013   0.00000
  19        3PZ         0.00000   0.46707   0.00000   0.53821   0.00000
  20 3   H  1S         -0.14422   0.08326  -0.00000  -0.50003   0.36656
  21        2S         -0.05332   0.03078  -0.00000  -0.18884   0.16155
  22        3PX        -0.03667   0.29511  -0.30608  -0.04342  -0.40344
  23        3PY        -0.29511  -0.30409   0.53015  -0.02507   0.14482
  24        3PZ         0.40449  -0.23353  -0.00000   0.53821   0.50685
  25 4   H  1S          0.14422   0.08326   0.00000  -0.50003  -0.36656
  26        2S          0.05332   0.03078   0.00000  -0.18884  -0.16155
  27        3PX        -0.03667  -0.29511  -0.30608   0.04342  -0.40344
  28        3PY         0.29511  -0.30409  -0.53015  -0.02507  -0.14482
  29        3PZ        -0.40449  -0.23353   0.00000   0.53821  -0.50685
                          21        22        23        24        25
                        (E)--V    (E)--V    (E)--V    (A1)--V   (E)--V
     Eigenvalues --     1.74189   2.02028   2.02028   2.37587   2.72293
   1 1   N  1S          0.00000   0.00000   0.00000   0.16220   0.00000
   2        2S          0.00000   0.00000   0.00000   0.74842   0.00000
   3        3S         -0.00000   0.00000   0.00000   1.52528   0.00000
   4        4PX         0.00000   0.70423   0.00000   0.00000  -0.00416
   5        4PY         0.03247   0.00000  -0.70423   0.00000   0.00000
   6        4PZ         0.00000   0.00000   0.00000   0.45792   0.00000
   7        5PX         0.00000  -0.09077   0.00000   0.00000  -0.40869
   8        5PY         0.97394   0.00000   0.09077  -0.00000   0.00000
   9        5PZ         0.00000   0.00000  -0.00000  -0.80025   0.00000
  10        6D 0        0.00000   0.00000  -0.00000   0.45470   0.00000
  11        6D+1        0.00000  -0.21379   0.00000   0.00000   0.79659
  12        6D-1        0.09480   0.00000   0.21379  -0.00000   0.00000
  13        6D+2       -0.06484   0.00000   0.21626  -0.00000   0.00000
  14        6D-2        0.00000  -0.21626   0.00000   0.00000  -0.76027
  15 2   H  1S         -0.42327   0.00000  -0.10207  -0.62916   0.00000
  16        2S         -0.18654   0.00000  -0.39149  -0.28976   0.00000
  17        3PX         0.00000   0.09795   0.00000   0.00000   0.55881
  18        3PY        -0.31983   0.00000   0.78177   0.77065   0.00000
  19        3PZ        -0.58526   0.00000  -0.42874   0.13738   0.00000
  20 3   H  1S          0.21163  -0.08839   0.05103  -0.62916  -0.12137
  21        2S          0.09327  -0.33904   0.19575  -0.28976  -0.09826
  22        3PX         0.14482  -0.56184   0.38093  -0.66741   0.04804
  23        3PY        -0.57067  -0.38093   0.12198  -0.38533  -0.29490
  24        3PZ         0.29263  -0.37130   0.21437   0.13738   0.24138
  25 4   H  1S          0.21163   0.08839   0.05103  -0.62916   0.12137
  26        2S          0.09327   0.33904   0.19575  -0.28976   0.09826
  27        3PX        -0.14482  -0.56184  -0.38093   0.66741   0.04804
  28        3PY        -0.57067   0.38093   0.12198  -0.38533   0.29490
  29        3PZ         0.29263   0.37130   0.21437   0.13738  -0.24138
                          26        27        28        29
                        (E)--V    (A1)--V   (E)--V    (E)--V
     Eigenvalues --     2.72293   2.79800   3.23679   3.23679
   1 1   N  1S         -0.00000   0.16133   0.00000   0.00000
   2        2S         -0.00000   0.77776   0.00000   0.00000
   3        3S         -0.00000   1.40288   0.00000   0.00000
   4        4PX         0.00000   0.00000  -0.71594   0.00000
   5        4PY        -0.00416   0.00000   0.00000   0.71594
   6        4PZ        -0.00000   0.39877   0.00000   0.00000
   7        5PX         0.00000   0.00000   1.01357   0.00000
   8        5PY        -0.40869  -0.00000   0.00000  -1.01357
   9        5PZ         0.00000  -0.23775   0.00000  -0.00000
  10        6D 0        0.00000  -0.99957   0.00000  -0.00000
  11        6D+1        0.00000   0.00000  -0.91379   0.00000
  12        6D-1        0.79659   0.00000   0.00000   0.91379
  13        6D+2       -0.76027  -0.00000   0.00000   1.01994
  14        6D-2        0.00000   0.00000  -1.01994   0.00000
  15 2   H  1S          0.14015  -0.66051   0.00000   1.18813
  16        2S          0.11346  -0.22882   0.00000   0.42366
  17        3PX         0.00000   0.00000  -0.02803   0.00000
  18        3PY        -0.12222   0.51327   0.00000  -0.94895
  19        3PZ        -0.27872  -0.47135   0.00000   0.39810
  20 3   H  1S         -0.07007  -0.66051   1.02895  -0.59407
  21        2S         -0.05673  -0.22882   0.36690  -0.21183
  22        3PX        -0.29490  -0.44450   0.70471  -0.42305
  23        3PY         0.38856  -0.25663   0.42305  -0.21622
  24        3PZ         0.13936  -0.47135   0.34476  -0.19905
  25 4   H  1S         -0.07007  -0.66051  -1.02895  -0.59407
  26        2S         -0.05673  -0.22882  -0.36690  -0.21183
  27        3PX         0.29490   0.44450   0.70471   0.42305
  28        3PY         0.38856  -0.25663  -0.42305  -0.21622
  29        3PZ         0.13936  -0.47135  -0.34476  -0.19905
     Density Matrix:
                           1         2         3         4         5
   1 1   N  1S          2.10783
   2        2S          0.21988   0.62267
   3        3S          0.18926   0.30592   0.26983
   4        4PX         0.00000  -0.00000   0.00000   0.43776
   5        4PY         0.00000   0.00000  -0.00000   0.00000   0.43776
   6        4PZ        -0.05742  -0.10418  -0.31556  -0.00000   0.00000
   7        5PX         0.00000   0.00000  -0.00000  -0.17809   0.00000
   8        5PY         0.00000   0.00000   0.00000  -0.00000  -0.17809
   9        5PZ         0.08381   0.17323   0.28523   0.00000   0.00000
  10        6D 0       -0.00251  -0.01120  -0.01471  -0.00000   0.00000
  11        6D+1        0.00000  -0.00000   0.00000   0.02011   0.00000
  12        6D-1       -0.00000   0.00000  -0.00000  -0.00000   0.02011
  13        6D+2        0.00000   0.00000   0.00000   0.00000   0.00916
  14        6D-2       -0.00000   0.00000   0.00000   0.00916  -0.00000
  15 2   H  1S          0.09125   0.16639   0.00955  -0.00000  -0.35184
  16        2S         -0.00446   0.00271  -0.02876  -0.00000  -0.14173
  17        3PX        -0.00000  -0.00000  -0.00000  -0.02060   0.00000
  18        3PY        -0.01878  -0.02336  -0.00337   0.00000   0.01396
  19        3PZ         0.00943   0.01307   0.01625  -0.00000  -0.00961
  20 3   H  1S          0.09125   0.16639   0.00955   0.30470   0.17592
  21        2S         -0.00446   0.00271  -0.02876   0.12274   0.07086
  22        3PX         0.01626   0.02023   0.00292   0.00532   0.01496
  23        3PY         0.00939   0.01168   0.00169   0.01496  -0.01196
  24        3PZ         0.00943   0.01307   0.01625   0.00832   0.00481
  25 4   H  1S          0.09125   0.16639   0.00955  -0.30470   0.17592
  26        2S         -0.00446   0.00271  -0.02876  -0.12274   0.07086
  27        3PX        -0.01626  -0.02023  -0.00292   0.00532  -0.01496
  28        3PY         0.00939   0.01168   0.00169  -0.01496  -0.01196
  29        3PZ         0.00943   0.01307   0.01625  -0.00832   0.00481
                           6         7         8         9        10
   6        4PZ         0.61496
   7        5PX         0.00000   0.07245
   8        5PY         0.00000   0.00000   0.07245
   9        5PZ        -0.48073  -0.00000   0.00000   0.38974
  10        6D 0        0.02286   0.00000   0.00000  -0.01897   0.00094
  11        6D+1       -0.00000  -0.00818   0.00000   0.00000  -0.00000
  12        6D-1        0.00000  -0.00000  -0.00818  -0.00000   0.00000
  13        6D+2        0.00000  -0.00000  -0.00373   0.00000   0.00000
  14        6D-2        0.00000  -0.00373   0.00000   0.00000   0.00000
  15 2   H  1S          0.13840   0.00000   0.14314  -0.07926   0.00289
  16        2S          0.06731   0.00000   0.05766  -0.05049   0.00233
  17        3PX        -0.00000   0.00838  -0.00000   0.00000  -0.00000
  18        3PY        -0.01530  -0.00000  -0.00568   0.00799  -0.00027
  19        3PZ        -0.02408   0.00000   0.00391   0.02020  -0.00100
  20 3   H  1S          0.13840  -0.12396  -0.07157  -0.07926   0.00289
  21        2S          0.06731  -0.04993  -0.02883  -0.05049   0.00233
  22        3PX         0.01325  -0.00216  -0.00609  -0.00692   0.00023
  23        3PY         0.00765  -0.00609   0.00487  -0.00399   0.00013
  24        3PZ        -0.02408  -0.00339  -0.00195   0.02020  -0.00100
  25 4   H  1S          0.13840   0.12396  -0.07157  -0.07926   0.00289
  26        2S          0.06731   0.04993  -0.02883  -0.05049   0.00233
  27        3PX        -0.01325  -0.00216   0.00609   0.00692  -0.00023
  28        3PY         0.00765   0.00609   0.00487  -0.00399   0.00013
  29        3PZ        -0.02408   0.00339  -0.00195   0.02020  -0.00100
                          11        12        13        14        15
  11        6D+1        0.00092
  12        6D-1        0.00000   0.00092
  13        6D+2        0.00000   0.00042   0.00019
  14        6D-2        0.00042  -0.00000  -0.00000   0.00019
  15 2   H  1S         -0.00000  -0.01616  -0.00736   0.00000   0.37421
  16        2S         -0.00000  -0.00651  -0.00297   0.00000   0.13343
  17        3PX        -0.00095   0.00000  -0.00000  -0.00043  -0.00000
  18        3PY         0.00000   0.00064   0.00029  -0.00000  -0.02302
  19        3PZ        -0.00000  -0.00044  -0.00020   0.00000   0.00520
  20 3   H  1S          0.01400   0.00808   0.00368   0.00638  -0.04995
  21        2S          0.00564   0.00326   0.00148   0.00257  -0.03744
  22        3PX         0.00024   0.00069   0.00031   0.00011  -0.00181
  23        3PY         0.00069  -0.00055  -0.00025   0.00031   0.01551
  24        3PZ         0.00038   0.00022   0.00010   0.00017  -0.00638
  25 4   H  1S         -0.01400   0.00808   0.00368  -0.00638  -0.04995
  26        2S         -0.00564   0.00326   0.00148  -0.00257  -0.03744
  27        3PX         0.00024  -0.00069  -0.00031   0.00011   0.00181
  28        3PY        -0.00069  -0.00055  -0.00025  -0.00031   0.01551
  29        3PZ        -0.00038   0.00022   0.00010  -0.00017  -0.00638
                          16        17        18        19        20
  16        2S          0.05359
  17        3PX        -0.00000   0.00097
  18        3PY        -0.00678   0.00000   0.00200
  19        3PZ         0.00068  -0.00000  -0.00012   0.00130
  20 3   H  1S         -0.03744  -0.01434  -0.00619  -0.00638   0.37421
  21        2S         -0.01524  -0.00578  -0.00000  -0.00399   0.13343
  22        3PX        -0.00288  -0.00025  -0.00087  -0.00049   0.01993
  23        3PY         0.00500  -0.00070  -0.00116   0.00017   0.01151
  24        3PZ        -0.00399  -0.00039   0.00034   0.00098   0.00520
  25 4   H  1S         -0.03744   0.01434  -0.00619  -0.00638  -0.04995
  26        2S         -0.01524   0.00578  -0.00000  -0.00399  -0.03744
  27        3PX         0.00288  -0.00025   0.00087   0.00049  -0.01253
  28        3PY         0.00500   0.00070  -0.00116   0.00017  -0.00932
  29        3PZ        -0.00399   0.00039   0.00034   0.00098  -0.00638
                          21        22        23        24        25
  21        2S          0.05359
  22        3PX         0.00587   0.00174
  23        3PY         0.00339   0.00045   0.00123
  24        3PZ         0.00068   0.00010   0.00006   0.00130
  25 4   H  1S         -0.03744   0.01253  -0.00932  -0.00638   0.37421
  26        2S         -0.01524   0.00289  -0.00500  -0.00399   0.13343
  27        3PX        -0.00289  -0.00161  -0.00008   0.00010  -0.01993
  28        3PY        -0.00500   0.00008   0.00020  -0.00051   0.01151
  29        3PZ        -0.00399  -0.00010  -0.00051   0.00098   0.00520
                          26        27        28        29
  26        2S          0.05359
  27        3PX        -0.00587   0.00174
  28        3PY         0.00339  -0.00045   0.00123
  29        3PZ         0.00068  -0.00010   0.00006   0.00130
    Full Mulliken population analysis:
                           1         2         3         4         5
   1 1   N  1S          2.10783
   2        2S         -0.07384   0.62267
   3        3S         -0.02936   0.24260   0.26983
   4        4PX         0.00000   0.00000   0.00000   0.43776
   5        4PY         0.00000   0.00000   0.00000   0.00000   0.43776
   6        4PZ         0.00000   0.00000   0.00000   0.00000   0.00000
   7        5PX         0.00000   0.00000   0.00000   0.09317   0.00000
   8        5PY         0.00000   0.00000   0.00000   0.00000   0.09317
   9        5PZ         0.00000   0.00000   0.00000   0.00000   0.00000
  10        6D 0        0.00000   0.00000   0.00000   0.00000   0.00000
  11        6D+1        0.00000   0.00000   0.00000   0.00000   0.00000
  12        6D-1        0.00000   0.00000   0.00000   0.00000   0.00000
  13        6D+2        0.00000   0.00000   0.00000   0.00000   0.00000
  14        6D-2        0.00000   0.00000   0.00000   0.00000   0.00000
  15 2   H  1S         -0.00450   0.05817   0.00469   0.00000   0.10578
  16        2S          0.00033   0.00122  -0.02114   0.00000   0.01868
  17        3PX        -0.00000   0.00000   0.00000   0.00394   0.00000
  18        3PY        -0.00152   0.00879   0.00080   0.00000   0.00442
  19        3PZ        -0.00032   0.00209   0.00164   0.00000   0.00207
  20 3   H  1S         -0.00450   0.05817   0.00469   0.07934   0.02645
  21        2S          0.00033   0.00122  -0.02114   0.01401   0.00467
  22        3PX        -0.00114   0.00659   0.00060   0.00101   0.00329
  23        3PY        -0.00038   0.00220   0.00020   0.00329   0.00077
  24        3PZ        -0.00032   0.00209   0.00164   0.00155   0.00052
  25 4   H  1S         -0.00450   0.05817   0.00469   0.07934   0.02645
  26        2S          0.00033   0.00122  -0.02114   0.01401   0.00467
  27        3PX        -0.00114   0.00659   0.00060   0.00101   0.00329
  28        3PY        -0.00038   0.00220   0.00020   0.00329   0.00077
  29        3PZ        -0.00032   0.00209   0.00164   0.00155   0.00052
                           6         7         8         9        10
   6        4PZ         0.61496
   7        5PX         0.00000   0.07245
   8        5PY         0.00000   0.00000   0.07245
   9        5PZ         0.25148   0.00000   0.00000   0.38974
  10        6D 0        0.00000   0.00000   0.00000   0.00000   0.00094
  11        6D+1        0.00000   0.00000   0.00000   0.00000   0.00000
  12        6D-1        0.00000   0.00000   0.00000   0.00000   0.00000
  13        6D+2        0.00000   0.00000   0.00000   0.00000   0.00000
  14        6D-2        0.00000   0.00000   0.00000   0.00000   0.00000
  15 2   H  1S          0.01765   0.00000   0.08028   0.01885  -0.00020
  16        2S          0.00376   0.00000   0.02398   0.00891  -0.00002
  17        3PX         0.00000   0.00271   0.00000   0.00000   0.00000
  18        3PY         0.00330  -0.00000   0.00015   0.00119   0.00000
  19        3PZ         0.00240   0.00000   0.00058   0.00527   0.00021
  20 3   H  1S          0.01765   0.06021   0.02007   0.01885  -0.00020
  21        2S          0.00376   0.01799   0.00600   0.00891  -0.00002
  22        3PX         0.00247  -0.00013   0.00092   0.00089   0.00000
  23        3PY         0.00082   0.00092   0.00115   0.00030   0.00000
  24        3PZ         0.00240   0.00044   0.00015   0.00527   0.00021
  25 4   H  1S          0.01765   0.06021   0.02007   0.01885  -0.00020
  26        2S          0.00376   0.01799   0.00600   0.00891  -0.00002
  27        3PX         0.00247  -0.00013   0.00092   0.00089   0.00000
  28        3PY         0.00082   0.00092   0.00115   0.00030   0.00000
  29        3PZ         0.00240   0.00044   0.00015   0.00527   0.00021
                          11        12        13        14        15
  11        6D+1        0.00092
  12        6D-1       -0.00000   0.00092
  13        6D+2        0.00000   0.00000   0.00019
  14        6D-2        0.00000   0.00000  -0.00000   0.00019
  15 2   H  1S          0.00000   0.00261   0.00140   0.00000   0.37421
  16        2S          0.00000   0.00013   0.00007   0.00000   0.09137
  17        3PX         0.00012   0.00000  -0.00000  -0.00013   0.00000
  18        3PY         0.00000   0.00015   0.00003   0.00000   0.00000
  19        3PZ        -0.00000  -0.00007   0.00004   0.00000   0.00000
  20 3   H  1S          0.00196   0.00065   0.00035   0.00105  -0.00453
  21        2S          0.00010   0.00003   0.00002   0.00005  -0.01022
  22        3PX         0.00003   0.00011  -0.00002   0.00002  -0.00010
  23        3PY         0.00011   0.00002  -0.00006  -0.00002   0.00142
  24        3PZ        -0.00005  -0.00002   0.00001   0.00003   0.00000
  25 4   H  1S          0.00196   0.00065   0.00035   0.00105  -0.00453
  26        2S          0.00010   0.00003   0.00002   0.00005  -0.01022
  27        3PX         0.00003   0.00011  -0.00002   0.00002  -0.00010
  28        3PY         0.00011   0.00002  -0.00006  -0.00002   0.00142
  29        3PZ        -0.00005  -0.00002   0.00001   0.00003   0.00000
                          16        17        18        19        20
  16        2S          0.05359
  17        3PX         0.00000   0.00097
  18        3PY         0.00000   0.00000   0.00200
  19        3PZ         0.00000   0.00000   0.00000   0.00130
  20 3   H  1S         -0.01022   0.00076   0.00057   0.00000   0.37421
  21        2S         -0.00859   0.00043   0.00000   0.00000   0.09137
  22        3PX        -0.00022   0.00001   0.00007   0.00000   0.00000
  23        3PY         0.00065   0.00005   0.00012   0.00000   0.00000
  24        3PZ         0.00000   0.00000   0.00000   0.00002   0.00000
  25 4   H  1S         -0.01022   0.00076   0.00057   0.00000  -0.00453
  26        2S         -0.00859   0.00043   0.00000   0.00000  -0.01022
  27        3PX        -0.00022   0.00001   0.00007   0.00000   0.00132
  28        3PY         0.00065   0.00005   0.00012   0.00000  -0.00000
  29        3PZ         0.00000   0.00000   0.00000   0.00002   0.00000
                          21        22        23        24        25
  21        2S          0.05359
  22        3PX         0.00000   0.00174
  23        3PY         0.00000   0.00000   0.00123
  24        3PZ         0.00000   0.00000   0.00000   0.00130
  25 4   H  1S         -0.01022   0.00132  -0.00000   0.00000   0.37421
  26        2S         -0.00859   0.00043  -0.00000   0.00000   0.09137
  27        3PX         0.00043   0.00024   0.00000   0.00000   0.00000
  28        3PY        -0.00000   0.00000   0.00000   0.00000   0.00000
  29        3PZ         0.00000   0.00000   0.00000   0.00002   0.00000
                          26        27        28        29
  26        2S          0.05359
  27        3PX         0.00000   0.00174
  28        3PY         0.00000   0.00000   0.00123
  29        3PZ         0.00000   0.00000   0.00000   0.00130
     Gross orbital populations:
                           1
   1 1   N  1S          1.98655
   2        2S          1.00222
   3        3S          0.44107
   4        4PX         0.73327
   5        4PY         0.73327
   6        4PZ         0.94777
   7        5PX         0.32719
   8        5PY         0.32719
   9        5PZ         0.74387
  10        6D 0        0.00092
  11        6D+1        0.00535
  12        6D-1        0.00535
  13        6D+2        0.00232
  14        6D-2        0.00232
  15 2   H  1S          0.72347
  16        2S          0.14414
  17        3PX         0.01011
  18        3PY         0.02082
  19        3PZ         0.01525
  20 3   H  1S          0.72347
  21        2S          0.14414
  22        3PX         0.01814
  23        3PY         0.01279
  24        3PZ         0.01525
  25 4   H  1S          0.72347
  26        2S          0.14414
  27        3PX         0.01814
  28        3PY         0.01279
  29        3PZ         0.01525
          Condensed to atoms (all electrons):
               1          2          3          4
     1  N    6.183057   0.358529   0.358529   0.358529
     2  H    0.358529   0.614805  -0.029774  -0.029774
     3  H    0.358529  -0.029774   0.614805  -0.029774
     4  H    0.358529  -0.029774  -0.029774   0.614805
 Mulliken charges:
               1
     1  N   -0.258644
     2  H    0.086215
     3  H    0.086215
     4  H    0.086215
 Sum of Mulliken charges =  -0.00000
 Mulliken charges with hydrogens summed into heavy atoms:
               1
     1  N   -0.000000
 Electronic spatial extent (au):  <R**2>=             26.2162
 Charge=             -0.0000 electrons
 Dipole moment (field-independent basis, Debye):
    X=             -0.0000    Y=             -0.0000    Z=             -1.7196  Tot=              1.7196
 Quadrupole moment (field-independent basis, Debye-Ang):
   XX=             -6.2120   YY=             -6.2120   ZZ=             -8.5886
   XY=              0.0000   XZ=              0.0000   YZ=              0.0000
 Traceless Quadrupole moment (field-independent basis, Debye-Ang):
   XX=              0.7922   YY=              0.7922   ZZ=             -1.5844
   XY=              0.0000   XZ=              0.0000   YZ=              0.0000
 Octapole moment (field-independent basis, Debye-Ang**2):
  XXX=             -0.0000  YYY=              0.6521  ZZZ=             -1.4173  XYY=              0.0000
  XXY=             -0.6521  XXZ=             -0.7008  XZZ=              0.0000  YZZ=              0.0000
  YYZ=             -0.7008  XYZ=              0.0000
 Hexadecapole moment (field-independent basis, Debye-Ang**3):
 XXXX=             -9.8880 YYYY=             -9.8880 ZZZZ=             -9.3039 XXXY=              0.0000
 XXXZ=              0.0000 YYYX=              0.0000 YYYZ=             -0.2791 ZZZX=             -0.0000
 ZZZY=             -0.0000 XXYY=             -3.2960 XXZZ=             -3.2362 YYZZ=             -3.2362
 XXYZ=              0.2791 YYXZ=             -0.0000 ZZXY=              0.0000
 N-N= 1.189461577007D+01 E-N=-1.554758708018D+02  KE= 5.592264286427D+01
 Symmetry A'   KE= 5.331640428636D+01
 Symmetry A"   KE= 2.606238577916D+00
 Orbital energies and kinetic energies (alpha):
                                 1                 2
   1         (A1)--O         -13.984028         21.751963
   2         (A1)--O          -0.759607          1.946577
   3         (E)--O           -0.403238          1.303119
   4         (E)--O           -0.403238          1.303119
   5         (A1)--O          -0.205099          1.656543
   6         (A1)--V           0.039140          0.883865
   7         (E)--V            0.120908          0.961133
   8         (E)--V            0.120908          0.961133
   9         (E)--V            0.479476          1.510695
  10         (E)--V            0.479476          1.510695
  11         (A1)--V           0.603602          2.508292
  12         (A1)--V           0.692448          2.938308
  13         (E)--V            0.789461          2.601454
  14         (E)--V            0.789461          2.601454
  15         (A1)--V           0.874714          2.330895
  16         (E)--V            1.139514          2.002801
  17         (E)--V            1.139514          2.002801
  18         (A2)--V           1.541536          2.295531
  19         (A1)--V           1.613994          2.627496
  20         (E)--V            1.741886          2.488120
  21         (E)--V            1.741886          2.488120
  22         (E)--V            2.020285          3.584207
  23         (E)--V            2.020285          3.584207
  24         (A1)--V           2.375872          4.222720
  25         (E)--V            2.722933          4.094600
  26         (E)--V            2.722933          4.094600
  27         (A1)--V           2.798001          4.746723
  28         (E)--V            3.236795          5.228780
  29         (E)--V            3.236795          5.228780
 Total kinetic energy from orbitals= 5.592264286427D+01
 No NMR shielding tensors so no spin-rotation constants.
 Leave Link  601 at Thu Jan 11 16:33:54 2018, MaxMem=  2097152000 cpu:         0.7
 (Enter /home/chemsoft/gaussian/g09e01/g09/l612.exe)
 Running external command "gaunbo6 R"
         input file       "/scr/martin/g09job.inter1515656028/Gau-18714.EIn"
         output file      "/scr/martin/g09job.inter1515656028/Gau-18714.EOu"
         message file     "/scr/martin/g09job.inter1515656028/Gau-18714.EMs"
         fchk file        "/scr/martin/g09job.inter1515656028/Gau-18714.EFC"
         mat. el file     "/scr/martin/g09job.inter1515656028/Gau-18714.EUF"

 Writing Wrt12E file "/scr/martin/g09job.inter1515656028/Gau-18714.EUF"
 Gaussian matrix elements                                         Version   1 NLab= 7 Len12L=8 Len4L=8
 Write GAUSSIAN SCALARS               from file   501 offset           0 to matrix element file.
 Write OVERLAP                        from file   514 offset           0 to matrix element file.
 Write CORE HAMILTONIAN ALPHA         from file   515 offset           0 to matrix element file.
 Write CORE HAMILTONIAN BETA          from file   515 offset         435 to matrix element file.
 Write KINETIC ENERGY                 from file   516 offset           0 to matrix element file.
 Write ORTHOGONAL BASIS               from file   685 offset           0 to matrix element file.
 Write DIPOLE INTEGRALS               from file   518 offset           0 to matrix element file.
 Array DIP VEL INTEGRALS               on  file    572 does not exist.
 Array R X DEL INTEGRALS               on  file    572 does not exist.
 Write ALPHA ORBITAL ENERGIES         from file     0 offset           0 to matrix element file.
 Write ALPHA MO COEFFICIENTS          from file 10524 offset           0 to matrix element file.
 Write ALPHA DENSITY MATRIX           from file     0 offset           0 to matrix element file.
 Write ALPHA SCF DENSITY MATRIX       from file 10528 offset           0 to matrix element file.
 Write ALPHA FOCK MATRIX              from file 10536 offset           0 to matrix element file.
 No 2e integrals to process.
 Perform NBO analysis...

 *********************************** NBO 6.0 ***********************************
             N A T U R A L   A T O M I C   O R B I T A L   A N D
          N A T U R A L   B O N D   O R B I T A L   A N A L Y S I S
 ***************************** development version *****************************
  (c) Copyright 1996-2016 Board of Regents of the University of Wisconsin System
      on behalf of the Theoretical Chemistry Institute.  All rights reserved.

          Cite this program as:

          NBO 6.0.  E. D. Glendening, J. K. Badenhoop, A. E. Reed,
          J. E. Carpenter, J. A. Bohmann, C. M. Morales, C. R. Landis,
          and F. Weinhold (Theoretical Chemistry Institute, University
          of Wisconsin, Madison, WI, 2013); http://nbo6.chem.wisc.edu/

 Filename set to /scr/martin/g09job.inter1515656028/Gau-18714

 Job title:  Ammonia DF-BP86/def2-SVP


 NATURAL POPULATIONS:  Natural atomic orbital occupancies

  NAO Atom No lang   Type(AO)    Occupancy      Energy
 -------------------------------------------------------
   1    N  1  s      Cor( 1s)     1.99995     -13.98175
   2    N  1  s      Val( 2s)     1.52670      -0.41988
   3    N  1  s      Ryd( 3s)     0.00097       0.91888
   4    N  1  px     Val( 2p)     1.34096      -0.14943
   5    N  1  px     Ryd( 3p)     0.00160       0.75220
   6    N  1  py     Val( 2p)     1.34095      -0.14941
   7    N  1  py     Ryd( 3p)     0.00159       0.75213
   8    N  1  pz     Val( 2p)     1.82370      -0.17448
   9    N  1  pz     Ryd( 3p)     0.00575       0.71729
  10    N  1  dxy    Ryd( 3d)     0.00024       2.57746
  11    N  1  dxz    Ryd( 3d)     0.00171       2.51564
  12    N  1  dyz    Ryd( 3d)     0.00167       2.53630
  13    N  1  dx2y2  Ryd( 3d)     0.00023       2.58274
  14    N  1  dz2    Ryd( 3d)     0.00180       2.36007

  15    H  2  s      Val( 1s)     0.64595       0.08277
  16    H  2  s      Ryd( 2s)     0.00225       0.34816
  17    H  2  px     Ryd( 2p)     0.00056       1.66366
  18    H  2  py     Ryd( 2p)     0.00103       2.27717
  19    H  2  pz     Ryd( 2p)     0.00094       1.75186

  20    H  3  s      Val( 1s)     0.64596       0.08291
  21    H  3  s      Ryd( 2s)     0.00225       0.34894
  22    H  3  px     Ryd( 2p)     0.00089       2.13692
  23    H  3  py     Ryd( 2p)     0.00068       1.83369
  24    H  3  pz     Ryd( 2p)     0.00094       1.76016

  25    H  4  s      Val( 1s)     0.64596       0.08291
  26    H  4  s      Ryd( 2s)     0.00225       0.34894
  27    H  4  px     Ryd( 2p)     0.00089       2.13692
  28    H  4  py     Ryd( 2p)     0.00068       1.83369
  29    H  4  pz     Ryd( 2p)     0.00094       1.76016


 Summary of Natural Population Analysis:

                                     Natural Population
             Natural    ---------------------------------------------
  Atom No    Charge        Core      Valence    Rydberg      Total
 --------------------------------------------------------------------
    N  1   -1.04781      1.99995     6.03230    0.01556     8.04781
    H  2    0.34926      0.00000     0.64595    0.00479     0.65074
    H  3    0.34927      0.00000     0.64596    0.00477     0.65073
    H  4    0.34927      0.00000     0.64596    0.00477     0.65073
 ====================================================================
 * Total *  0.00000      1.99995     7.97017    0.02988    10.00000

                                 Natural Population
 ---------------------------------------------------------
   Core                       1.99995 ( 99.9975% of    2)
   Valence                    7.97017 ( 99.6271% of    8)
   Natural Minimal Basis      9.97012 ( 99.7012% of   10)
   Natural Rydberg Basis      0.02988 (  0.2988% of   10)
 ---------------------------------------------------------

    Atom No         Natural Electron Configuration
 ----------------------------------------------------------------------------
      N  1      [core]2s( 1.53)2p( 4.51)3p( 0.01)3d( 0.01)
      H  2            1s( 0.65)
      H  3            1s( 0.65)
      H  4            1s( 0.65)


 NATURAL BOND ORBITAL ANALYSIS:

                            Occupancies       Lewis Structure    Low   High
         Max    Occ     -------------------  -----------------   occ   occ
  Cycle  Ctr   Thresh    Lewis   non-Lewis     CR  BD  nC  LP    (L)   (NL)
 ============================================================================
    1     2     1.90     9.98847   0.01153      1   3   0   1     0      0
 ----------------------------------------------------------------------------

 Structure accepted: No low occupancy Lewis orbitals

 -------------------------------------------------------
   Core                      1.99995 ( 99.998% of   2)
   Valence Lewis             7.98852 ( 99.857% of   8)
  ==================      =============================
   Total Lewis               9.98847 ( 99.885% of  10)
  -----------------------------------------------------
   Valence non-Lewis         0.00017 (  0.002% of  10)
   Rydberg non-Lewis         0.01135 (  0.114% of  10)
  ==================      =============================
   Total non-Lewis           0.01153 (  0.115% of  10)
 -------------------------------------------------------


     (Occupancy)   Bond orbital / Coefficients / Hybrids
 ------------------ Lewis ------------------------------------------------------
   1. (1.99995) CR ( 1) N  1            s(100.00%)
                                         1.0000  0.0000  0.0000  0.0000  0.0000
                                         0.0000  0.0000  0.0000  0.0000  0.0000
                                         0.0000  0.0000  0.0000  0.0000
   2. (1.99417) LP ( 1) N  1            s( 25.99%)p 2.84( 73.92%)d 0.00(  0.09%)
                                         0.0000  0.5094 -0.0179  0.0000  0.0000
                                         0.0000  0.0000  0.8581  0.0537  0.0000
                                         0.0000  0.0000  0.0001 -0.0300
   3. (1.99809) BD ( 1) N  1- H  2
               ( 67.62%)   0.8223* N  1 s( 24.66%)p 3.05( 75.25%)d 0.00(  0.09%)
                                         0.0000  0.4965  0.0090  0.0000  0.0000
                                         0.8155 -0.0281 -0.2946 -0.0005  0.0000
                                         0.0000 -0.0286 -0.0104 -0.0013
               ( 32.38%)   0.5690* H  2 s( 99.84%)p 0.00(  0.16%)
                                         0.9992 -0.0007  0.0000 -0.0391  0.0081
   4. (1.99813) BD ( 1) N  1- H  3
               ( 67.63%)   0.8223* N  1 s( 24.66%)p 3.05( 75.25%)d 0.00(  0.10%)
                                         0.0000  0.4965  0.0089 -0.7062  0.0244
                                        -0.4077  0.0141 -0.2946 -0.0005  0.0095
                                         0.0252  0.0146  0.0055 -0.0014
               ( 32.37%)   0.5690* H  3 s( 99.85%)p 0.00(  0.15%)
                                         0.9992 -0.0007  0.0330  0.0191  0.0077
   5. (1.99813) BD ( 1) N  1- H  4
               ( 67.63%)   0.8223* N  1 s( 24.66%)p 3.05( 75.25%)d 0.00(  0.10%)
                                         0.0000  0.4965  0.0089  0.7062 -0.0244
                                        -0.4077  0.0141 -0.2946 -0.0005 -0.0095
                                        -0.0252  0.0146  0.0055 -0.0014
               ( 32.37%)   0.5690* H  4 s( 99.85%)p 0.00(  0.15%)
                                         0.9992 -0.0007 -0.0330  0.0191  0.0077
 ---------------- non-Lewis ----------------------------------------------------
   6. (0.00006) BD*( 1) N  1- H  2
               ( 32.38%)   0.5690* N  1 s( 24.66%)p 3.05( 75.25%)d 0.00(  0.09%)
               ( 67.62%)  -0.8223* H  2 s( 99.84%)p 0.00(  0.16%)
   7. (0.00006) BD*( 1) N  1- H  3
               ( 32.37%)   0.5690* N  1 s( 24.66%)p 3.05( 75.25%)d 0.00(  0.10%)
               ( 67.63%)  -0.8223* H  3 s( 99.85%)p 0.00(  0.15%)
   8. (0.00006) BD*( 1) N  1- H  4
               ( 32.37%)   0.5690* N  1 s( 24.66%)p 3.05( 75.25%)d 0.00(  0.10%)
               ( 67.63%)  -0.8223* H  4 s( 99.85%)p 0.00(  0.15%)
   9. (0.00000) RY ( 1) N  1            s(  0.10%)p99.99( 76.64%)d99.99( 23.26%)
  10. (0.00000) RY ( 2) N  1            s( 99.94%)p 0.00(  0.05%)d 0.00(  0.00%)
  11. (0.00000) RY ( 3) N  1            s(  0.00%)p 1.00(100.00%)d 0.00(  0.00%)
  12. (0.00000) RY ( 4) N  1            s(  0.00%)p 1.00(100.00%)d 0.00(  0.00%)
  13. (0.00000) RY ( 5) N  1            s(  0.00%)p 1.00(  0.02%)d99.99( 99.98%)
  14. (0.00000) RY ( 6) N  1            s(  0.00%)p 1.00(  0.13%)d99.99( 99.87%)
  15. (0.00000) RY ( 7) N  1            s(  0.00%)p 1.00(  0.15%)d99.99( 99.85%)
  16. (0.00000) RY ( 8) N  1            s(  0.00%)p 1.00(  0.08%)d99.99( 99.92%)
  17. (0.00000) RY ( 9) N  1            s(  0.00%)p 1.00( 23.26%)d 3.30( 76.74%)
  18. (0.00259) RY ( 1) H  2            s( 83.53%)p 0.20( 16.47%)
                                         0.0056  0.9139  0.0000  0.0437 -0.4035
  19. (0.00061) RY ( 2) H  2            s( 14.56%)p 5.87( 85.44%)
                                         0.0027  0.3816  0.0000  0.2463  0.8909
  20. (0.00056) RY ( 3) H  2            s(  0.00%)p 1.00(100.00%)
                                         0.0000  0.0000  1.0000  0.0000  0.0000
  21. (0.00001) RY ( 4) H  2            s(  2.07%)p47.26( 97.93%)
  22. (0.00258) RY ( 1) H  3            s( 83.97%)p 0.19( 16.03%)
                                         0.0057  0.9163 -0.0426 -0.0294 -0.3971
  23. (0.00063) RY ( 2) H  3            s( 13.32%)p 6.51( 86.68%)
                                         0.0042  0.3649 -0.1854 -0.2411  0.8799
  24. (0.00057) RY ( 3) H  3            s(  0.21%)p99.99( 99.79%)
                                         0.0006  0.0462 -0.5266  0.8429  0.1008
  25. (0.00001) RY ( 4) H  3            s(  2.65%)p36.71( 97.35%)
  26. (0.00258) RY ( 1) H  4            s( 83.97%)p 0.19( 16.03%)
                                         0.0057  0.9163  0.0426 -0.0294 -0.3971
  27. (0.00063) RY ( 2) H  4            s( 13.32%)p 6.51( 86.68%)
                                         0.0042  0.3649  0.1854 -0.2411  0.8799
[...]
  10         (E)--V            0.471536          1.495333
  11         (A1)--V           0.596093          2.516237
  12         (A1)--V           0.690799          2.949720
  13         (E)--V            0.786838          2.602277
  14         (E)--V            0.786838          2.602277
  15         (A1)--V           0.886778          2.309504
  16         (E)--V            1.132297          1.990321
  17         (E)--V            1.132297          1.990321
  18         (A2)--V           1.540637          2.291990
  19         (A1)--V           1.589194          2.616660
  20         (E)--V            1.732164          2.475135
  21         (E)--V            1.732164          2.475135
  22         (E)--V            1.986085          3.515203
  23         (E)--V            1.986085          3.515203
  24         (A1)--V           2.381577          4.278436
  25         (E)--V            2.695493          4.067449
  26         (E)--V            2.695493          4.067449
  27         (A1)--V           2.748336          4.571916
  28         (E)--V            3.232504          5.172828
  29         (E)--V            3.232504          5.172828
 Total kinetic energy from orbitals= 5.587959398239D+01
 No NMR shielding tensors so no spin-rotation constants.
 Leave Link  601 at Thu Jan 11 16:34:10 2018, MaxMem=  2097152000 cpu:         0.6
 (Enter /home/chemsoft/gaussian/g09e01/g09/l612.exe)
 Running external command "gaunbo6 R"
         input file       "/scr/martin/g09job.inter1515656028/Gau-18714.EIn"
         output file      "/scr/martin/g09job.inter1515656028/Gau-18714.EOu"
         message file     "/scr/martin/g09job.inter1515656028/Gau-18714.EMs"
         fchk file        "/scr/martin/g09job.inter1515656028/Gau-18714.EFC"
         mat. el file     "/scr/martin/g09job.inter1515656028/Gau-18714.EUF"

 Writing Wrt12E file "/scr/martin/g09job.inter1515656028/Gau-18714.EUF"
 Gaussian matrix elements                                         Version   1 NLab= 7 Len12L=8 Len4L=8
 Write GAUSSIAN SCALARS               from file   501 offset           0 to matrix element file.
 Write OVERLAP                        from file   514 offset           0 to matrix element file.
 Write CORE HAMILTONIAN ALPHA         from file   515 offset           0 to matrix element file.
 Write CORE HAMILTONIAN BETA          from file   515 offset         435 to matrix element file.
 Write KINETIC ENERGY                 from file   516 offset           0 to matrix element file.
 Write ORTHOGONAL BASIS               from file   685 offset           0 to matrix element file.
 Write DIPOLE INTEGRALS               from file   518 offset           0 to matrix element file.
 Array DIP VEL INTEGRALS               on  file    572 does not exist.
 Array R X DEL INTEGRALS               on  file    572 does not exist.
 Write ALPHA ORBITAL ENERGIES         from file     0 offset           0 to matrix element file.
 Write ALPHA MO COEFFICIENTS          from file 10524 offset           0 to matrix element file.
 Write ALPHA DENSITY MATRIX           from file     0 offset           0 to matrix element file.
 Write ALPHA SCF DENSITY MATRIX       from file 10528 offset           0 to matrix element file.
 Write ALPHA FOCK MATRIX              from file 10536 offset           0 to matrix element file.
 No 2e integrals to process.
 Perform NBO analysis...

 *********************************** NBO 6.0 ***********************************
             N A T U R A L   A T O M I C   O R B I T A L   A N D
          N A T U R A L   B O N D   O R B I T A L   A N A L Y S I S
 ***************************** development version *****************************
  (c) Copyright 1996-2016 Board of Regents of the University of Wisconsin System
      on behalf of the Theoretical Chemistry Institute.  All rights reserved.

          Cite this program as:

          NBO 6.0.  E. D. Glendening, J. K. Badenhoop, A. E. Reed,
          J. E. Carpenter, J. A. Bohmann, C. M. Morales, C. R. Landis,
          and F. Weinhold (Theoretical Chemistry Institute, University
          of Wisconsin, Madison, WI, 2013); http://nbo6.chem.wisc.edu/

 Filename set to /scr/martin/g09job.inter1515656028/Gau-18714

 Job title:  Ammonia DF-BP86/def2-SVP


 NATURAL POPULATIONS:  Natural atomic orbital occupancies

  NAO Atom No lang   Type(AO)    Occupancy      Energy
 -------------------------------------------------------
   1    N  1  s      Cor( 1s)     1.99995     -13.98695
   2    N  1  s      Val( 2s)     1.55184      -0.43198
   3    N  1  s      Ryd( 3s)     0.00107       0.93048
   4    N  1  px     Val( 2p)     1.34039      -0.15382
   5    N  1  px     Ryd( 3p)     0.00143       0.75262
   6    N  1  py     Val( 2p)     1.34038      -0.15380
   7    N  1  py     Ryd( 3p)     0.00142       0.75256
   8    N  1  pz     Val( 2p)     1.80189      -0.17632
   9    N  1  pz     Ryd( 3p)     0.00514       0.72168
  10    N  1  dxy    Ryd( 3d)     0.00021       2.53983
  11    N  1  dxz    Ryd( 3d)     0.00182       2.51733
  12    N  1  dyz    Ryd( 3d)     0.00177       2.53729
  13    N  1  dx2y2  Ryd( 3d)     0.00020       2.54484
  14    N  1  dz2    Ryd( 3d)     0.00186       2.32914

  15    H  2  s      Val( 1s)     0.64521       0.06976
  16    H  2  s      Ryd( 2s)     0.00243       0.35441
  17    H  2  px     Ryd( 2p)     0.00059       1.64789
  18    H  2  py     Ryd( 2p)     0.00102       2.24689
  19    H  2  pz     Ryd( 2p)     0.00096       1.75593

  20    H  3  s      Val( 1s)     0.64522       0.06988
  21    H  3  s      Ryd( 2s)     0.00244       0.35517
  22    H  3  px     Ryd( 2p)     0.00089       2.10962
  23    H  3  py     Ryd( 2p)     0.00070       1.81311
  24    H  3  pz     Ryd( 2p)     0.00095       1.76380

  25    H  4  s      Val( 1s)     0.64522       0.06988
  26    H  4  s      Ryd( 2s)     0.00244       0.35517
  27    H  4  px     Ryd( 2p)     0.00089       2.10962
  28    H  4  py     Ryd( 2p)     0.00070       1.81311
  29    H  4  pz     Ryd( 2p)     0.00095       1.76380


 Summary of Natural Population Analysis:

                                     Natural Population
             Natural    ---------------------------------------------
  Atom No    Charge        Core      Valence    Rydberg      Total
 --------------------------------------------------------------------
    N  1   -1.04938      1.99995     6.03450    0.01492     8.04938
    H  2    0.34979      0.00000     0.64521    0.00500     0.65021
    H  3    0.34979      0.00000     0.64522    0.00498     0.65021
    H  4    0.34979      0.00000     0.64522    0.00498     0.65021
 ====================================================================
 * Total *  0.00000      1.99995     7.97016    0.02988    10.00000

                                 Natural Population
 ---------------------------------------------------------
   Core                       1.99995 ( 99.9977% of    2)
   Valence                    7.97016 ( 99.6270% of    8)
   Natural Minimal Basis      9.97012 ( 99.7012% of   10)
   Natural Rydberg Basis      0.02988 (  0.2988% of   10)
 ---------------------------------------------------------

    Atom No         Natural Electron Configuration
 ----------------------------------------------------------------------------
      N  1      [core]2s( 1.55)2p( 4.48)3p( 0.01)3d( 0.01)
      H  2            1s( 0.65)
      H  3            1s( 0.65)
      H  4            1s( 0.65)


 NATURAL BOND ORBITAL ANALYSIS:

                            Occupancies       Lewis Structure    Low   High
         Max    Occ     -------------------  -----------------   occ   occ
  Cycle  Ctr   Thresh    Lewis   non-Lewis     CR  BD  nC  LP    (L)   (NL)
 ============================================================================
    1     2     1.90     9.98774   0.01226      1   3   0   1     0      0
 ----------------------------------------------------------------------------

 Structure accepted: No low occupancy Lewis orbitals

 -------------------------------------------------------
   Core                      1.99995 ( 99.998% of   2)
   Valence Lewis             7.98778 ( 99.847% of   8)
  ==================      =============================
   Total Lewis               9.98774 ( 99.877% of  10)
  -----------------------------------------------------
   Valence non-Lewis         0.00025 (  0.002% of  10)
   Rydberg non-Lewis         0.01202 (  0.120% of  10)
  ==================      =============================
   Total non-Lewis           0.01226 (  0.123% of  10)
 -------------------------------------------------------


     (Occupancy)   Bond orbital / Coefficients / Hybrids
 ------------------ Lewis ------------------------------------------------------
   1. (1.99995) CR ( 1) N  1            s(100.00%)
                                         1.0000  0.0000  0.0000  0.0000  0.0000
                                         0.0000  0.0000  0.0000  0.0000  0.0000
                                         0.0000  0.0000  0.0000  0.0000
   2. (1.99361) LP ( 1) N  1            s( 29.59%)p 2.38( 70.32%)d 0.00(  0.09%)
                                         0.0000  0.5437 -0.0182  0.0000  0.0000
                                         0.0000  0.0000  0.8370  0.0506  0.0000
                                         0.0000  0.0000  0.0001 -0.0305
   3. (1.99803) BD ( 1) N  1- H  2
               ( 67.66%)   0.8226* N  1 s( 23.46%)p 3.26( 76.44%)d 0.00(  0.10%)
                                         0.0000  0.4843  0.0100  0.0000  0.0000
                                         0.8155 -0.0266 -0.3142 -0.0023  0.0000
                                         0.0000 -0.0295 -0.0098  0.0004
               ( 32.34%)   0.5687* H  2 s( 99.84%)p 0.00(  0.16%)
                                         0.9992 -0.0008  0.0000 -0.0388  0.0087
   4. (1.99807) BD ( 1) N  1- H  3
               ( 67.66%)   0.8226* N  1 s( 23.46%)p 3.26( 76.44%)d 0.00(  0.10%)
                                         0.0000  0.4843  0.0099 -0.7062  0.0230
                                        -0.4077  0.0133 -0.3142 -0.0023  0.0089
                                         0.0260  0.0150  0.0052  0.0004
               ( 32.34%)   0.5687* H  3 s( 99.85%)p 0.00(  0.15%)
                                         0.9992 -0.0008  0.0329  0.0190  0.0083
   5. (1.99807) BD ( 1) N  1- H  4
               ( 67.66%)   0.8226* N  1 s( 23.46%)p 3.26( 76.44%)d 0.00(  0.10%)
                                         0.0000  0.4843  0.0099  0.7062 -0.0230
                                        -0.4077  0.0133 -0.3142 -0.0023 -0.0089
                                        -0.0260  0.0150  0.0052  0.0004
               ( 32.34%)   0.5687* H  4 s( 99.85%)p 0.00(  0.15%)
                                         0.9992 -0.0008 -0.0329  0.0190  0.0083
 ---------------- non-Lewis ----------------------------------------------------
   6. (0.00008) BD*( 1) N  1- H  2
               ( 32.34%)   0.5687* N  1 s( 23.46%)p 3.26( 76.44%)d 0.00(  0.10%)
               ( 67.66%)  -0.8226* H  2 s( 99.84%)p 0.00(  0.16%)
   7. (0.00008) BD*( 1) N  1- H  3
               ( 32.34%)   0.5687* N  1 s( 23.46%)p 3.26( 76.44%)d 0.00(  0.10%)
               ( 67.66%)  -0.8226* H  3 s( 99.85%)p 0.00(  0.15%)
   8. (0.00008) BD*( 1) N  1- H  4
               ( 32.34%)   0.5687* N  1 s( 23.46%)p 3.26( 76.44%)d 0.00(  0.10%)
               ( 67.66%)  -0.8226* H  4 s( 99.85%)p 0.00(  0.15%)
   9. (0.00000) RY ( 1) N  1            s(  0.08%)p99.99( 82.21%)d99.99( 17.71%)
  10. (0.00000) RY ( 2) N  1            s( 99.94%)p 0.00(  0.06%)d 0.00(  0.00%)
  11. (0.00000) RY ( 3) N  1            s(  0.00%)p 1.00(100.00%)d 0.00(  0.00%)
  12. (0.00000) RY ( 4) N  1            s(  0.00%)p 1.00(100.00%)d 0.00(  0.00%)
  13. (0.00000) RY ( 5) N  1            s(  0.00%)p 1.00(  0.02%)d99.99( 99.98%)
  14. (0.00000) RY ( 6) N  1            s(  0.00%)p 1.00(  0.14%)d99.99( 99.86%)
  15. (0.00000) RY ( 7) N  1            s(  0.00%)p 1.00(  0.16%)d99.99( 99.84%)
  16. (0.00000) RY ( 8) N  1            s(  0.00%)p 1.00(  0.07%)d99.99( 99.93%)
  17. (0.00000) RY ( 9) N  1            s(  0.00%)p 1.00( 17.72%)d 4.64( 82.28%)
  18. (0.00277) RY ( 1) H  2            s( 84.79%)p 0.18( 15.21%)
                                         0.0054  0.9208  0.0000  0.0324 -0.3886
  19. (0.00061) RY ( 2) H  2            s( 13.50%)p 6.40( 86.50%)
                                         0.0027  0.3675  0.0000  0.2613  0.8926
  20. (0.00059) RY ( 3) H  2            s(  0.00%)p 1.00(100.00%)
                                         0.0000  0.0000  1.0000  0.0000  0.0000
  21. (0.00001) RY ( 4) H  2            s(  1.86%)p52.74( 98.14%)
  22. (0.00277) RY ( 1) H  3            s( 85.20%)p 0.17( 14.80%)
                                         0.0055  0.9230 -0.0328 -0.0234 -0.3826
  23. (0.00064) RY ( 2) H  3            s( 12.11%)p 7.26( 87.89%)
                                         0.0041  0.3479 -0.1604 -0.3053  0.8718
  24. (0.00060) RY ( 3) H  3            s(  0.47%)p99.99( 99.53%)
                                         0.0009  0.0686 -0.5408  0.8227  0.1613
  25. (0.00001) RY ( 4) H  3            s(  2.38%)p41.07( 97.62%)
  26. (0.00277) RY ( 1) H  4            s( 85.20%)p 0.17( 14.80%)
                                         0.0055  0.9230  0.0328 -0.0234 -0.3826
  27. (0.00064) RY ( 2) H  4            s( 12.11%)p 7.26( 87.89%)
                                         0.0041  0.3479  0.1604 -0.3053  0.8718
  28. (0.00060) RY ( 3) H  4            s(  0.47%)p99.99( 99.53%)
                                         0.0009  0.0686  0.5408  0.8227  0.1613
  29. (0.00001) RY ( 4) H  4            s(  2.38%)p41.07( 97.62%)


 NHO DIRECTIONALITY AND BOND BENDING (deviation from line of nuclear centers at
                                      the position of maximum hybrid amplitude)

         [Thresholds for printing:  angular deviation  >  1.0 degree]
                                    p- or d-character  > 25.0%
                                    orbital occupancy  >  0.10e

                        Line of Centers        Hybrid 1             Hybrid 2
                        ---------------  -------------------  ------------------
           NBO            Theta   Phi    Theta   Phi    Dev   Theta   Phi    Dev
 ===============================================================================
   2. LP ( 1) N  1          --     --      0.0    0.0   --      --     --    --
   3. BD ( 1) N  1- H  2  114.4   90.0   112.8   90.0   1.6     --     --    --
   4. BD ( 1) N  1- H  3  114.4  210.0   112.8  210.0   1.6     --     --    --
   5. BD ( 1) N  1- H  4  114.4  330.0   112.8  330.0   1.6     --     --    --


 SECOND ORDER PERTURBATION THEORY ANALYSIS OF FOCK MATRIX IN NBO BASIS

     Threshold for printing:   0.50 kcal/mol
                                                          E(2) E(NL)-E(L) F(L,NL)
      Donor (L) NBO              Acceptor (NL) NBO      kcal/mol   a.u.    a.u.
 ===============================================================================

 within unit  1
    2. LP ( 1) N  1            18. RY ( 1) H  2            1.57    0.85   0.033
    2. LP ( 1) N  1            19. RY ( 2) H  2            0.68    1.72   0.030
    2. LP ( 1) N  1            22. RY ( 1) H  3            1.56    0.85   0.032
    2. LP ( 1) N  1            23. RY ( 2) H  3            0.64    1.74   0.030
    2. LP ( 1) N  1            26. RY ( 1) H  4            1.56    0.85   0.032
    2. LP ( 1) N  1            27. RY ( 2) H  4            0.64    1.74   0.030


 NATURAL BOND ORBITALS (Summary):

                                                     Principal Delocalizations
           NBO                 Occupancy    Energy   (geminal,vicinal,remote)
 ===============================================================================
 Molecular unit  1  (H3N)
 ------ Lewis --------------------------------------
    1. CR ( 1) N  1             1.99995   -13.98695
    2. LP ( 1) N  1             1.99361    -0.24660  18(v),22(v),26(v),19(v)
                                                     23(v),27(v)
    3. BD ( 1) N  1- H  2       1.99803    -0.50382
    4. BD ( 1) N  1- H  3       1.99807    -0.50388
    5. BD ( 1) N  1- H  4       1.99807    -0.50388
 ------ non-Lewis ----------------------------------
    6. BD*( 1) N  1- H  2       0.00008     0.36528
    7. BD*( 1) N  1- H  3       0.00008     0.36521
    8. BD*( 1) N  1- H  4       0.00008     0.36521
    9. RY ( 1) N  1             0.00000     0.99322
   10. RY ( 2) N  1             0.00000     0.93146
   11. RY ( 3) N  1             0.00000     0.75158
   12. RY ( 4) N  1             0.00000     0.75151
   13. RY ( 5) N  1             0.00000     2.53836
   14. RY ( 6) N  1             0.00000     2.51524
   15. RY ( 7) N  1             0.00000     2.53458
   16. RY ( 8) N  1             0.00000     2.54201
   17. RY ( 9) N  1             0.00000     2.06275
   18. RY ( 1) H  2             0.00277     0.60062
   19. RY ( 2) H  2             0.00061     1.47184
   20. RY ( 3) H  2             0.00059     1.64789
   21. RY ( 4) H  2             0.00001     2.27175
   22. RY ( 1) H  3             0.00277     0.60264
   23. RY ( 2) H  3             0.00064     1.49539
   24. RY ( 3) H  3             0.00060     1.64537
   25. RY ( 4) H  3             0.00001     2.28537
   26. RY ( 1) H  4             0.00277     0.60264
   27. RY ( 2) H  4             0.00064     1.49539
   28. RY ( 3) H  4             0.00060     1.64537
   29. RY ( 4) H  4             0.00001     2.28537
          -------------------------------
                 Total Lewis    9.98774  ( 99.8774%)
           Valence non-Lewis    0.00025  (  0.0025%)
           Rydberg non-Lewis    0.01202  (  0.1202%)
          -------------------------------
               Total unit  1   10.00000  (100.0000%)
              Charge unit  1    0.00000

 $CHOOSE
   LONE 1 1 END
   BOND S 1 2 S 1 3 S 1 4 END
 $END

 NBO analysis completed in 0.07 CPU seconds (0 wall seconds)
 Maximum scratch memory used by NBO was 149203 words
 Maximum scratch memory used by G09NBO was 12541 words

 Read Unf file /scr/martin/g09job.inter1515656028/Gau-18714.EUF:
 Label Gaussian matrix elements                                         IVers= 1 NLab= 2 Version=ES64L-G09RevE.01
 Title Ammonia DF-BP86/def2-SVP                                        
 NAtoms=     4 NBasis=    29 NBsUse=    29 ICharg=     0 Multip=     1 NE=    10 Len12L=8 Len4L=8
 Label GAUSSIAN SCALARS                                                 NI= 1 NR= 1 NTot=       1 LenBuf=    2000 N=    1000       1       1       1       1
 Label NPA CHARGES                                                      NI= 0 NR= 1 NTot=       4 LenBuf=    4000 N=       4       0       0       0       0
 Recovered energy= -56.5090729265     dipole=      0.000000000000      0.000000000000      0.000000000000
 Leave Link  612 at Thu Jan 11 16:34:11 2018, MaxMem=  2097152000 cpu:         2.3
 (Enter /home/chemsoft/gaussian/g09e01/g09/l9999.exe)

 Test job not archived.
 1\1\GINC-LENOX07\FOpt\RBP86\def2SVP/W06\H3N1\MARTIN\11-Jan-2018\0\\#P 
 BP86/def2SVP/W06 DenFit opt(MaxCycle=100) scf(xqc,MaxConventionalCycle
 =500) int(ultrafinegrid) gfinput gfoldprint iop(6/7=3) symmetry(loose)
  pop=full pop=nbo6\\Ammonia DF-BP86/def2-SVP\\0,1\N,-0.0000000001,0.,-
 0.0922969718\H,-0.9398209779,-0.0000000003,0.3340668373\H,0.4699104885
 ,0.813908842,0.3340668373\H,0.4699104891,-0.8139088416,0.3340668373\\V
 ersion=ES64L-G09RevE.01\State=1-A1\HF=-56.5090729\RMSD=8.836e-09\RMSF=
 6.573e-05\Dipole=0.,0.,0.7014266\Quadrupole=0.5661302,0.5661302,-1.132
 2605,0.,0.,0.\PG=C03V [C3(N1),3SGV(H1)]\\@


 UNLESS WE CHANGE DIRECTIONS, WE WILL WIND UP WHERE WE ARE HEADED.
     -- CONFUCIUS
 Job cpu time:       0 days  0 hours  1 minutes 22.3 seconds.
 File lengths (MBytes):  RWF=      5 Int=      0 D2E=      0 Chk=      1 Scr=      1
 Normal termination of Gaussian 09 at Thu Jan 11 16:34:11 2018.
