Ammonia DF-BP86/def2-SVP                                                
FOpt      RBP86                                                       def2SVP/W06         
Number of atoms                            I                4
Info1-9                                    I   N=           9
          20          19           0           0           0         111
           2          18         402
Full Title                                 C   N=           2
Ammonia DF-BP86/def2-SVP
Route                                      C   N=          14
#P BP86/def2SVP/W06 DenFit opt(MaxCycle=100) scf(xqc,MaxConv
entionalCycle=500) int(ultrafinegrid) gfinput gfoldprint iop
(6/7=3) symmetry(loose) pop=full pop=nbo6       
Charge                                     I                0
Multiplicity                               I                1
Number of electrons                        I               10
Number of alpha electrons                  I                5
Number of beta electrons                   I                5
Number of basis functions                  I               29
Number of independent functions            I               29
Number of point charges in /Mol/           I                0
Number of translation vectors              I                0
Atomic numbers                             I   N=           4
           7           1           1           1
Nuclear charges                            R   N=           4
  7.00000000E+00  1.00000000E+00  1.00000000E+00  1.00000000E+00
Current cartesian coordinates              R   N=          12
  0.00000000E+00 -0.00000000E+00  2.41713250E-01  0.00000000E+00  1.77600426E+00
 -5.63997582E-01 -1.53806481E+00 -8.88002131E-01 -5.63997582E-01  1.53806481E+00
 -8.88002131E-01 -5.63997582E-01
Number of symbols in /Mol/                 I                0
Redundant internal dimensions              I   N=           4
           7           3           3           1
Redundant internal coordinate indices      I   N=          28
           1           2           0           0           1           3
           0           0           1           4           0           0
           2           1           3           0           2           1
           4           0           3           1           4           0
           2           1           4           3
Redundant internal coordinates             R   N=           7
  1.95022078E+00  1.95022078E+00  1.95022078E+00  1.81725910E+00  1.81725910E+00
  1.81725910E+00 -1.89938535E+00
ZRed-IntVec                                I   N=           7
           0           0           0           0           0           0
           0
ZRed-FPVec                                 R   N=           7
  0.00000000E+00  0.00000000E+00  0.00000000E+00  0.00000000E+00  0.00000000E+00
  0.00000000E+00  0.00000000E+00
ZRed-Constraint1                           R   N=           7
  1.92367312E+00  1.92367312E+00  1.92367312E+00  1.84561291E+00  1.84561291E+00
  1.84561291E+00 -1.95243253E+00
ZRed-Constraint2                           R   N=           7
  0.00000000E+00  0.00000000E+00  0.00000000E+00  0.00000000E+00  0.00000000E+00
  0.00000000E+00  0.00000000E+00
Force Field                                I                0
Atom Types                                 C   N=           4
                                                
Int Atom Types                             I   N=           4
           0           0           0           0
MM charges                                 R   N=           4
  0.00000000E+00  0.00000000E+00  0.00000000E+00  0.00000000E+00
Integer atomic weights                     I   N=           4
          14           1           1           1
Real atomic weights                        R   N=           4
  1.40030740E+01  1.00782504E+00  1.00782504E+00  1.00782504E+00
Atom fragment info                         I   N=           4
           0           0           0           0
Atom residue num                           I   N=           4
           0           0           0           0
Nuclear spins                              I   N=           4
           2           1           1           1
Nuclear ZEff                               R   N=           4
 -4.55000000E+00 -1.00000000E+00 -1.00000000E+00 -1.00000000E+00
Nuclear ZNuc                               R   N=           4
  7.00000000E+00  1.00000000E+00  1.00000000E+00  1.00000000E+00
Nuclear QMom                               R   N=           4
  2.04400000E+00  0.00000000E+00  0.00000000E+00  0.00000000E+00
Nuclear GFac                               R   N=           4
  4.03761000E-01  2.79284600E+00  2.79284600E+00  2.79284600E+00
MicOpt                                     I   N=           4
          -1          -1          -1          -1
Number of residues                         I                0
Number of secondary structures             I                0
SymInf integers                            I   N=          26
           2           2           1           1           1          -1
           1           1           0           0           0           0
           0           0           0           0           0           0
           0           0           0           0           0           0
           0           0
RotTr to input orientation                 R   N=          12
  3.34104411E-10 -1.00000000E+00  0.00000000E+00 -1.00000000E+00 -3.34104411E-10
  0.00000000E+00  0.00000000E+00  0.00000000E+00 -1.00000000E+00 -1.88972460E-10
  3.10862447E-16  6.72972501E-02
Number of contracted shells                I               15
Number of primitive shells                 I               27
Pure/Cartesian d shells                    I                0
Pure/Cartesian f shells                    I                0
Highest angular momentum                   I                2
Largest degree of contraction              I                5
Shell types                                I   N=          15
           0           0           0           1           1          -2
           0           0           1           0           0           1
           0           0           1
Number of primitives per shell             I   N=          15
           5           1           1           3           1           1
           3           1           1           3           1           1
           3           1           1
Shell to atom map                          I   N=          15
           1           1           1           1           1           1
           2           2           2           3           3           3
           4           4           4
Primitive exponents                        R   N=          27
  1.71284159E+03  2.57648127E+02  5.84582459E+01  1.61983679E+01  5.00526008E+00
  5.87318566E-01  1.87645923E-01  1.35714702E+01  2.92573729E+00  7.99277508E-01
  2.19543480E-01  1.00000000E+00  1.30107010E+01  1.96225720E+00  4.44537960E-01
  1.21949620E-01  8.00000000E-01  1.30107010E+01  1.96225720E+00  4.44537960E-01
  1.21949620E-01  8.00000000E-01  1.30107010E+01  1.96225720E+00  4.44537960E-01
  1.21949620E-01  8.00000000E-01
Contraction coefficients                   R   N=          27
 -5.44779958E-03 -4.06271746E-02 -1.81119623E-01 -4.68439756E-01 -4.46168463E-01
  1.00000000E+00  1.00000000E+00 -5.88481170E-02 -3.20246248E-01 -7.53282265E-01
  1.00000000E+00  1.00000000E+00  3.34854848E-02  2.34721871E-01  8.13770285E-01
  1.00000000E+00  1.00000000E+00  3.34854848E-02  2.34721871E-01  8.13770285E-01
  1.00000000E+00  1.00000000E+00  3.34854848E-02  2.34721871E-01  8.13770285E-01
  1.00000000E+00  1.00000000E+00
Coordinates of each shell                  R   N=          45
  0.00000000E+00  0.00000000E+00  2.41713250E-01  0.00000000E+00  0.00000000E+00
  2.41713250E-01  0.00000000E+00  0.00000000E+00  2.41713250E-01  0.00000000E+00
  0.00000000E+00  2.41713250E-01  0.00000000E+00  0.00000000E+00  2.41713250E-01
  0.00000000E+00  0.00000000E+00  2.41713250E-01  0.00000000E+00  1.77600426E+00
 -5.63997582E-01  0.00000000E+00  1.77600426E+00 -5.63997582E-01  0.00000000E+00
  1.77600426E+00 -5.63997582E-01 -1.53806481E+00 -8.88002131E-01 -5.63997582E-01
 -1.53806481E+00 -8.88002131E-01 -5.63997582E-01 -1.53806481E+00 -8.88002131E-01
 -5.63997582E-01  1.53806481E+00 -8.88002131E-01 -5.63997582E-01  1.53806481E+00
 -8.88002131E-01 -5.63997582E-01  1.53806481E+00 -8.88002131E-01 -5.63997582E-01
Density Number of contracted shells        I               30
Density Number of primitive shells         I               48
Density Pure/Cartesian d shells            I                0
Density Pure/Cartesian f shells            I                0
Density Highest angular momentum           I                4
Density Largest degree of contraction      I                7
Density Shell types                        I   N=          30
           0           0           0           0           0           0
           1           1           1           1          -2          -2
          -2          -3          -4           0           0           0
           1          -2           0           0           0           1
          -2           0           0           0           1          -2
Density Number of primitives per shell     I   N=          30
           7           1           1           1           1           1
           2           1           1           1           2           1
           1           2           1           3           1           1
           2           1           3           1           1           2
           1           3           1           1           2           1
Density Shell to atom map                  I   N=          30
           1           1           1           1           1           1
           1           1           1           1           1           1
           1           1           1           2           2           2
           2           2           3           3           3           3
           3           4           4           4           4           4
Density Primitive exponents                R   N=          48
  2.54294018E+03  1.02954730E+03  4.24905355E+02  1.78457371E+02  7.61362742E+01
  3.29338653E+01  1.44155436E+01  6.37188910E+00  2.83817420E+00  1.27117930E+00
  5.71240700E-01  2.56988700E-01  1.78975990E+01  6.53463190E+00  2.35236450E+00
  8.39737700E-01  2.98933500E-01  7.69098700E+00  2.30449720E+00  8.40398700E-01
  3.30379700E-01  2.33310760E+00  8.44613700E-01  1.40377000E+00  1.56752927E+01
  3.60635780E+00  1.20800160E+00  4.72679400E-01  2.01810000E-01  2.02813650E+00
  5.35873000E-01  2.21651240E+00  1.56752927E+01  3.60635780E+00  1.20800160E+00
  4.72679400E-01  2.01810000E-01  2.02813650E+00  5.35873000E-01  2.21651240E+00
  1.56752927E+01  3.60635780E+00  1.20800160E+00  4.72679400E-01  2.01810000E-01
  2.02813650E+00  5.35873000E-01  2.21651240E+00
Density Contraction coefficients           R   N=          48
  1.57267989E-03  3.97704448E-03  1.95376611E-02  7.47626441E-02  2.18976743E-01
  4.21671880E-01  2.96402909E-01 -1.00000000E+00  1.00000000E+00  1.00000000E+00
  1.00000000E+00  1.00000000E+00 -1.19813247E+00  2.49356462E-01  1.00000000E+00
  1.00000000E+00  1.00000000E+00  9.91894048E-02  9.12612482E-01  1.00000000E+00
  1.00000000E+00  4.52107608E-01  6.08156234E-01 -1.00000000E+00  3.26115897E-02
  2.29804684E-01  7.57208324E-01  1.00000000E+00  1.00000000E+00  3.61836199E-01
  7.03930309E-01  1.00000000E+00  3.26115897E-02  2.29804684E-01  7.57208324E-01
  1.00000000E+00  1.00000000E+00  3.61836199E-01  7.03930309E-01  1.00000000E+00
  3.26115897E-02  2.29804684E-01  7.57208324E-01  1.00000000E+00  1.00000000E+00
  3.61836199E-01  7.03930309E-01  1.00000000E+00
Density Coordinates of each shell          R   N=          90
  0.00000000E+00  0.00000000E+00  2.41713250E-01  0.00000000E+00  0.00000000E+00
  2.41713250E-01  0.00000000E+00  0.00000000E+00  2.41713250E-01  0.00000000E+00
  0.00000000E+00  2.41713250E-01  0.00000000E+00  0.00000000E+00  2.41713250E-01
  0.00000000E+00  0.00000000E+00  2.41713250E-01  0.00000000E+00  0.00000000E+00
  2.41713250E-01  0.00000000E+00  0.00000000E+00  2.41713250E-01  0.00000000E+00
  0.00000000E+00  2.41713250E-01  0.00000000E+00  0.00000000E+00  2.41713250E-01
  0.00000000E+00  0.00000000E+00  2.41713250E-01  0.00000000E+00  0.00000000E+00
  2.41713250E-01  0.00000000E+00  0.00000000E+00  2.41713250E-01  0.00000000E+00
  0.00000000E+00  2.41713250E-01  0.00000000E+00  0.00000000E+00  2.41713250E-01
  0.00000000E+00  1.77600426E+00 -5.63997582E-01  0.00000000E+00  1.77600426E+00
 -5.63997582E-01  0.00000000E+00  1.77600426E+00 -5.63997582E-01  0.00000000E+00
  1.77600426E+00 -5.63997582E-01  0.00000000E+00  1.77600426E+00 -5.63997582E-01
 -1.53806481E+00 -8.88002131E-01 -5.63997582E-01 -1.53806481E+00 -8.88002131E-01
 -5.63997582E-01 -1.53806481E+00 -8.88002131E-01 -5.63997582E-01 -1.53806481E+00
 -8.88002131E-01 -5.63997582E-01 -1.53806481E+00 -8.88002131E-01 -5.63997582E-01
  1.53806481E+00 -8.88002131E-01 -5.63997582E-01  1.53806481E+00 -8.88002131E-01
 -5.63997582E-01  1.53806481E+00 -8.88002131E-01 -5.63997582E-01  1.53806481E+00
 -8.88002131E-01 -5.63997582E-01  1.53806481E+00 -8.88002131E-01 -5.63997582E-01
Constraint Structure                       R   N=          12
  0.00000000E+00 -0.00000000E+00  2.25306189E-01  0.00000000E+00  1.77101279E+00
 -5.25714440E-01 -1.53374206E+00 -8.85506393E-01 -5.25714440E-01  1.53374206E+00
 -8.85506393E-01 -5.25714440E-01
Num ILSW                                   I              100
ILSW                                       I   N=         100
           0           0           0           0           2           0
           0           0           0           0         404          -1
           5           0           0           0           2           0
           0           0           0           0           1           0
           1           0           0           0           0           0
           0           0      100000           0          -1           0
           0           0           0           0           0           0
           0           0           0           1           0           0
           0           0           1           0           0           0
           0           0           4          41           0           0
           0           0           0           0           0           0
           0           0           0           4           0           0
           0           0           0           0           0           0
           0           0           0           0           0           0
           0           0           0           0           0           0
           0           0           0           0           0           0
           0           0           0           0
Num RLSW                                   I               41
RLSW                                       R   N=          41
  1.00000000E+00  1.00000000E+00  1.00000000E+00  1.00000000E+00  0.00000000E+00
  0.00000000E+00  0.00000000E+00  1.00000000E+00  0.00000000E+00  0.00000000E+00
  0.00000000E+00  0.00000000E+00  1.00000000E+00  0.00000000E+00  0.00000000E+00
  0.00000000E+00  0.00000000E+00  1.00000000E+00  0.00000000E+00  0.00000000E+00
  0.00000000E+00  0.00000000E+00  1.00000000E+00  0.00000000E+00  0.00000000E+00
  0.00000000E+00  0.00000000E+00  1.00000000E+00  0.00000000E+00  0.00000000E+00
  0.00000000E+00  0.00000000E+00  1.00000000E+00  0.00000000E+00  0.00000000E+00
  0.00000000E+00  0.00000000E+00  0.00000000E+00  1.00000000E+00  1.00000000E+00
  0.00000000E+00
ECP-MxAtEC                                 I           250000
ECP-MaxLECP                                I               10
ECP-MaxAtL                                 I          2250000
ECP-MxTECP                                 I         11250000
ECP-LenNCZ                                 I                0
ECP-KFirst                                 I   N=          40
           0           0           0           0           0           0
           0           0           0           0           0           0
           0           0           0           0           0           0
           0           0           0           0           0           0
           0           0           0           0           0           0
           0           0           0           0           0           0
           0           0           0           0
ECP-KLast                                  I   N=          40
           0           0           0           0           0           0
           0           0           0           0           0           0
           0           0           0           0           0           0
           0           0           0           0           0           0
           0           0           0           0           0           0
           0           0           0           0           0           0
           0           0           0           0
ECP-LMax                                   I   N=           4
           0           0           0           0
ECP-LPSkip                                 I   N=           4
           1           1           1           1
ECP-RNFroz                                 R   N=           4
  0.00000000E+00  0.00000000E+00  0.00000000E+00  0.00000000E+00
ECP-NLP                                    I                0
ECP-CLP1                                   R      0.000000000000000E+00
ECP-CLP2                                   R      0.000000000000000E+00
ECP-ZLP                                    R      0.000000000000000E+00
MxBond                                     I                3
NBond                                      I   N=           4
           3           1           1           1
IBond                                      I   N=          12
           2           3           4           1           0           0
           1           0           0           1           0           0
RBond                                      R   N=          12
  1.00000000E+00  1.00000000E+00  1.00000000E+00  1.00000000E+00  0.00000000E+00
  0.00000000E+00  1.00000000E+00  0.00000000E+00  0.00000000E+00  1.00000000E+00
  0.00000000E+00  0.00000000E+00
Virial Ratio                               R      2.011264916210258E+00
SCF Energy                                 R     -5.650907292646203E+01
Total Energy                               R     -5.650907292646203E+01
RMS Force                                  R      6.573131607022944E-05
RMS Density                                R      8.836496928116511E-09
Job Status                                 I                1
Nuclear derivative order                   I                1
External E-field                           R   N=          35
  0.00000000E+00  0.00000000E+00  0.00000000E+00  0.00000000E+00  0.00000000E+00
  0.00000000E+00  0.00000000E+00  0.00000000E+00  0.00000000E+00  0.00000000E+00
  0.00000000E+00  0.00000000E+00  0.00000000E+00  0.00000000E+00  0.00000000E+00
  0.00000000E+00  0.00000000E+00  0.00000000E+00  0.00000000E+00  0.00000000E+00
  0.00000000E+00  0.00000000E+00  0.00000000E+00  0.00000000E+00  0.00000000E+00
  0.00000000E+00  0.00000000E+00  0.00000000E+00  0.00000000E+00  0.00000000E+00
  0.00000000E+00  0.00000000E+00  0.00000000E+00  0.00000000E+00  0.00000000E+00
IOpCl                                      I                0
IROHF                                      I                0
Alpha Orbital Energies                     R   N=          29
 -1.39893268E+01 -7.57776218E-01 -3.98431383E-01 -3.98431383E-01 -2.09520418E-01
  3.50227678E-02  1.16070539E-01  1.16070539E-01  4.71536304E-01  4.71536304E-01
  5.96093361E-01  6.90799198E-01  7.86837718E-01  7.86837718E-01  8.86778269E-01
  1.13229683E+00  1.13229683E+00  1.54063675E+00  1.58919435E+00  1.73216429E+00
  1.73216429E+00  1.98608481E+00  1.98608481E+00  2.38157736E+00  2.69549344E+00
  2.69549344E+00  2.74833593E+00  3.23250438E+00  3.23250438E+00
Alpha MO coefficients                      R   N=         841
  9.88239106E-01 -4.46996752E-02  1.83065903E-02  0.00000000E+00 -7.53160615E-17
 -3.93606417E-03  0.00000000E+00 -1.12021567E-15 -4.96316141E-04  1.26568786E-03
  0.00000000E+00  9.06487189E-16  4.86750355E-16  0.00000000E+00  3.31377532E-03
 -2.92516265E-03  0.00000000E+00 -3.32286290E-03  1.50032304E-03  3.31377532E-03
 -2.92516265E-03  2.87768369E-03  1.66143145E-03  1.50032304E-03  3.31377532E-03
 -2.92516265E-03 -2.87768369E-03  1.66143145E-03  1.50032304E-03  2.58867705E-01
  5.19308613E-01  1.72905686E-01  0.00000000E+00  2.93087408E-16  1.18467767E-01
  0.00000000E+00 -1.60644809E-15 -8.33759294E-03 -1.53026871E-03  0.00000000E+00
  3.17288322E-16  2.98939661E-16  0.00000000E+00  1.93599391E-01  2.46803850E-02
  0.00000000E+00 -2.59729099E-02  4.02279953E-03  1.93599391E-01  2.46803850E-02
  2.24931998E-02  1.29864549E-02  4.02279953E-03  1.93599391E-01  2.46803850E-02
 -2.24931998E-02  1.29864549E-02  4.02279953E-03  0.00000000E+00  0.00000000E+00
  0.00000000E+00  4.66600512E-01  0.00000000E+00  0.00000000E+00 -1.94798761E-01
  0.00000000E+00  0.00000000E+00  0.00000000E+00  2.19480433E-02  0.00000000E+00
  0.00000000E+00  9.04293850E-03  0.00000000E+00  0.00000000E+00 -2.19061445E-02
  0.00000000E+00  0.00000000E+00  3.24043970E-01  1.34796146E-01  5.70949800E-03
  1.59438986E-02  9.45715124E-03 -3.24043970E-01 -1.34796146E-01  5.70949800E-03
 -1.59438986E-02 -9.45715124E-03 -6.25028693E-16 -1.46004015E-15 -3.08382825E-15
  0.00000000E+00  4.66600512E-01  1.67795664E-16  0.00000000E+00 -1.94798761E-01
  9.30425398E-16  3.85152041E-17  0.00000000E+00  2.19480433E-02  9.04293850E-03
  0.00000000E+00 -3.74173746E-01 -1.55649182E-01  0.00000000E+00  1.49147122E-02
 -1.09201776E-02  1.87086873E-01  7.78245910E-02  1.59438986E-02 -1.27009303E-02
  5.46008881E-03  1.87086873E-01  7.78245910E-02 -1.59438986E-02 -1.27009303E-02
  5.46008881E-03 -1.05746329E-01 -2.15786863E-01 -3.45517538E-01  0.00000000E+00
 -3.36633153E-16  5.36795398E-01  0.00000000E+00 -1.09799115E-15 -4.29798623E-01
  2.21279532E-02  0.00000000E+00  4.04149212E-17 -2.48653597E-16  0.00000000E+00
  9.34229013E-02  6.23604565E-02  0.00000000E+00 -9.36252426E-03 -2.25175235E-02
  9.34229013E-02  6.23604565E-02  8.10818385E-03  4.68126213E-03 -2.25175235E-02
  9.34229013E-02  6.23604565E-02 -8.10818385E-03  4.68126213E-03 -2.25175235E-02
  1.31844615E-01  2.42822647E-01  1.37896274E+00  0.00000000E+00 -2.88698775E-15
  2.10566472E-01  0.00000000E+00  9.07266221E-15 -3.49796999E-01  6.08028250E-03
  0.00000000E+00  8.18676541E-17  5.47904535E-16  0.00000000E+00 -9.22468261E-02
 -7.43507856E-01  0.00000000E+00 -1.04347489E-02  2.42819165E-03 -9.22468261E-02
 -7.43507856E-01  9.03675759E-03  5.21737443E-03  2.42819165E-03 -9.22468261E-02
 -7.43507856E-01 -9.03675759E-03  5.21737443E-03  2.42819165E-03  0.00000000E+00
  0.00000000E+00  0.00000000E+00 -4.11555004E-01  0.00000000E+00  0.00000000E+00
  7.62990135E-01  0.00000000E+00  0.00000000E+00  0.00000000E+00 -7.05605087E-03
  0.00000000E+00  0.00000000E+00  9.18234700E-03  0.00000000E+00  0.00000000E+00
  8.55800434E-03  0.00000000E+00  0.00000000E+00  1.35537125E-01  1.30849037E+00
 -6.03812690E-03 -8.42708030E-03 -8.29333469E-03 -1.35537125E-01 -1.30849037E+00
 -6.03812690E-03  8.42708030E-03  8.29333469E-03  8.56297401E-17  1.98087299E-16
  3.55113687E-15  0.00000000E+00  4.11555004E-01  5.90251948E-16  0.00000000E+00
 -7.62990135E-01  2.42418893E-15  2.66958980E-16  0.00000000E+00  7.05605087E-03
 -9.18234700E-03  0.00000000E+00  1.56504791E-01  1.51091453E+00  0.00000000E+00
  1.09035040E-02 -9.57631803E-03 -7.82523957E-02 -7.55457266E-01  8.42708030E-03
 -3.69262726E-03  4.78815902E-03 -7.82523957E-02 -7.55457266E-01 -8.42708030E-03
 -3.69262726E-03  4.78815902E-03  0.00000000E+00  0.00000000E+00  0.00000000E+00
 -1.35293797E-01  0.00000000E+00  0.00000000E+00  5.20119362E-01  0.00000000E+00
  0.00000000E+00  0.00000000E+00  6.63806231E-02  0.00000000E+00  0.00000000E+00
  9.12608648E-02  0.00000000E+00  0.00000000E+00  9.03822296E-02  0.00000000E+00
  0.00000000E+00  9.22585301E-01 -7.30026936E-01 -1.28672402E-02 -5.96111092E-02
 -4.26805406E-02 -9.22585301E-01  7.30026936E-01 -1.28672402E-02  5.96111092E-02
  4.26805406E-02  4.08852533E-15  2.41459588E-14 -4.60859503E-14  0.00000000E+00
  1.35293797E-01  3.88781280E-15  0.00000000E+00 -5.20119362E-01  9.60988216E-15
  5.60039062E-16  0.00000000E+00 -6.63806231E-02 -9.12608648E-02  0.00000000E+00
  1.06530974E+00 -8.42962496E-01  0.00000000E+00  4.72837301E-02 -4.92832432E-02
 -5.32654872E-01  4.21481248E-01  5.96111092E-02 -5.59657397E-02  2.46416216E-02
 -5.32654872E-01  4.21481248E-01 -5.96111092E-02 -5.59657397E-02  2.46416216E-02
 -1.74687160E-01 -8.09273330E-01  1.30323292E+00  0.00000000E+00 -6.11725432E-15
 -4.02741108E-01  0.00000000E+00 -1.51802390E-14 -3.14494490E-01 -7.48590207E-02
  0.00000000E+00 -3.55800465E-16 -1.48365994E-15  0.00000000E+00  5.79641012E-01
 -6.44664358E-01  0.00000000E+00  1.71633470E-01  2.98864917E-03  5.79641012E-01
 -6.44664358E-01 -1.48638945E-01 -8.58167349E-02  2.98864917E-03  5.79641012E-01
 -6.44664358E-01  1.48638945E-01 -8.58167349E-02  2.98864917E-03 -1.67706657E-01
 -8.42553825E-01  7.78819645E-01  0.00000000E+00 -9.82673337E-15  8.46437918E-01
  0.00000000E+00 -1.96691478E-14  9.60630241E-01 -4.66137233E-04  0.00000000E+00
  1.63473653E-16 -2.65798746E-16  0.00000000E+00  1.70259985E-01 -1.23438591E-01
  0.00000000E+00 -1.20976020E-02  1.14137382E-02  1.70259985E-01 -1.23438591E-01
  1.04768306E-02  6.04880099E-03  1.14137382E-02  1.70259985E-01 -1.23438591E-01
 -1.04768306E-02  6.04880099E-03  1.14137382E-02  0.00000000E+00  0.00000000E+00
  0.00000000E+00  8.93459513E-01  0.00000000E+00  0.00000000E+00  1.73658689E+00
  0.00000000E+00  0.00000000E+00  0.00000000E+00 -3.47250627E-02  0.00000000E+00
  0.00000000E+00 -3.77412279E-02  0.00000000E+00  0.00000000E+00  6.53097885E-03
  0.00000000E+00  0.00000000E+00  5.25202681E-02  1.09351600E+00  1.50989001E-01
  8.34028780E-02  8.39725111E-02 -5.25202681E-02 -1.09351600E+00  1.50989001E-01
 -8.34028780E-02 -8.39725111E-02 -6.56531848E-15 -4.42341036E-14  8.99092667E-14
  0.00000000E+00  8.93459513E-01  2.88800664E-15  0.00000000E+00  1.73658689E+00
 -1.08262193E-14  3.02361080E-16  0.00000000E+00 -3.47250627E-02 -3.77412279E-02
  0.00000000E+00 -6.06451819E-02 -1.26268351E+00  0.00000000E+00  1.99141675E-01
 -9.69631038E-02  3.03225909E-02  6.31341756E-01  8.34028780E-02  5.46836529E-02
  4.84815519E-02  3.03225909E-02  6.31341756E-01 -8.34028780E-02  5.46836529E-02
  4.84815519E-02 -1.83447564E-01 -1.51090868E+00  3.60320401E+00  0.00000000E+00
 -1.58436930E-14 -2.43944902E-01  0.00000000E+00 -3.44810126E-14 -9.18279692E-01
  9.90559258E-02  0.00000000E+00 -8.44559173E-16 -1.50868999E-16  0.00000000E+00
 -6.51013476E-01 -5.56179769E-01  0.00000000E+00 -8.54225877E-03 -1.65320780E-01
 -6.51013476E-01 -5.56179769E-01  7.39781310E-03  4.27112938E-03 -1.65320780E-01
 -6.51013476E-01 -5.56179769E-01 -7.39781310E-03  4.27112938E-03 -1.65320780E-01
  0.00000000E+00  0.00000000E+00  0.00000000E+00  1.72924900E-02  0.00000000E+00
  0.00000000E+00 -3.38444235E-01  0.00000000E+00  0.00000000E+00  0.00000000E+00
 -1.96706327E-01  0.00000000E+00  0.00000000E+00  1.61701853E-01  0.00000000E+00
  0.00000000E+00  4.90666088E-01  0.00000000E+00  0.00000000E+00 -1.38646834E-01
 -5.13770851E-02 -4.00699137E-02 -3.06420573E-01  3.86001642E-01  1.38646834E-01
  5.13770851E-02 -4.00699137E-02  3.06420573E-01 -3.86001642E-01  6.80192594E-16
  2.16673252E-15 -6.61665754E-15  0.00000000E+00 -1.72924900E-02 -9.53399013E-16
  0.00000000E+00  3.38444235E-01  3.41846303E-16 -3.14014517E-16  0.00000000E+00
  1.96706327E-01 -1.61701853E-01  0.00000000E+00 -1.60095573E-01 -5.93251478E-02
  0.00000000E+00  2.16981914E-01  4.45716304E-01  8.00477867E-02  2.96625739E-02
  3.06420573E-01 -3.13754087E-01 -2.22858152E-01  8.00477867E-02  2.96625739E-02
 -3.06420573E-01 -3.13754087E-01 -2.22858152E-01  0.00000000E+00  0.00000000E+00
  0.00000000E+00  2.14690294E-15  0.00000000E+00  0.00000000E+00  7.73422704E-15
  0.00000000E+00  0.00000000E+00  0.00000000E+00  3.08747894E-15  0.00000000E+00
  0.00000000E+00  4.56135198E-16  0.00000000E+00  0.00000000E+00  6.11529658E-01
  0.00000000E+00  0.00000000E+00  1.52619270E-15  2.66266638E-15 -3.05764829E-01
  5.29600219E-01  1.13124165E-15 -1.52619270E-15 -2.66266638E-15 -3.05764829E-01
 -5.29600219E-01 -1.13124165E-15 -9.20885321E-02 -8.63777355E-01  1.81195540E+00
  0.00000000E+00  4.33046113E-16 -1.00943071E-01  0.00000000E+00  1.39416652E-14
 -1.06021967E+00 -3.05890316E-01  0.00000000E+00 -5.25078513E-16 -4.16910194E-16
  0.00000000E+00 -5.34583567E-01 -1.94921848E-01  0.00000000E+00  7.04682433E-02
  5.19499771E-01 -5.34583567E-01 -1.94921848E-01 -6.10272888E-02 -3.52341216E-02
  5.19499771E-01 -5.34583567E-01 -1.94921848E-01  6.10272888E-02 -3.52341216E-02
  5.19499771E-01  0.00000000E+00  0.00000000E+00  0.00000000E+00  7.08025771E-03
  0.00000000E+00  0.00000000E+00  9.23959859E-01  0.00000000E+00  0.00000000E+00
  0.00000000E+00  9.96665904E-02  0.00000000E+00  0.00000000E+00 -5.42341037E-02
  0.00000000E+00  0.00000000E+00 -6.36928796E-01  0.00000000E+00  0.00000000E+00
  3.41648025E-01  1.55868049E-01 -3.83867614E-01  1.46104941E-01  5.30982294E-01
 -3.41648025E-01 -1.55868049E-01 -3.83867614E-01 -1.46104941E-01 -5.30982294E-01
  4.15355291E-15  3.05105732E-14 -4.78477615E-14  0.00000000E+00  7.08025771E-03
  7.04169781E-15  0.00000000E+00  9.23959859E-01  2.39630180E-14  4.94900402E-15
  0.00000000E+00  9.96665904E-02 -5.42341037E-02  0.00000000E+00 -3.94501159E-01
 -1.79980920E-01  0.00000000E+00 -2.99513887E-01 -6.13125541E-01  1.97250579E-01